LAMMPS data file via write_data, version 24 Oct 2018, timestep = 500

250 atoms
1 atom types

-5.6894151952812777e-02 2.2056894151953024e+01 xlo xhi
-5.6894151952812777e-02 2.2056894151953024e+01 ylo yhi
-5.6894151952812777e-02 2.2056894151953024e+01 zlo zhi
0.0000000000000000e+00 0.0000000000000000e+00 0.0000000000000000e+00 xy xz yz

Masses

1 22.9898

Atoms # full

195 0 1 0.0000000000000000e+00 1.8970820467715448e+01 1.4137253470735198e+01 4.2805288191796969e+00 1 1 1
112 0 1 0.0000000000000000e+00 2.0512336438481469e+01 1.9928059144416359e+01 1.1241259378619947e+01 0 0 0
146 0 1 0.0000000000000000e+00 7.9100913239923576e-01 1.9715549127915942e+01 4.4691374512143476e+00 1 1 1
45 0 1 0.0000000000000000e+00 5.8081721468751297e+00 1.2056734840244482e+01 7.1469794298016760e+00 0 0 0
40 0 1 0.0000000000000000e+00 1.6779041377551501e+01 1.8392701702181178e+01 5.0945705795359997e+00 -1 0 -1
137 0 1 0.0000000000000000e+00 1.7492190334554856e+00 1.7959683012325392e+01 7.0587655897301440e+00 0 -1 0
77 0 1 0.0000000000000000e+00 9.8323180018673693e+00 6.6127891470121636e+00 3.6552791259559636e+00 0 0 0
212 0 1 0.0000000000000000e+00 2.1547715818866884e+01 4.7395968698790822e+00 5.1969573109164591e+00 0 0 0
247 0 1 0.0000000000000000e+00 1.9515720967478408e+01 5.5754797127123235e+00 2.1222115751523333e+01 -1 0 0
138 0 1 0.0000000000000000e+00 1.3490323862718312e+00 1.0620105728770469e+01 2.0967982131243204e+01 1 0 0
31 0 1 0.0000000000000000e+00 1.0282779617635981e+01 5.6391868267434819e-01 1.9766211065196494e+01 0 0 0
177 0 1 0.0000000000000000e+00 9.7062511315119604e+00 2.4419887954463189e+00 3.4489904100574003e+00 0 0 1
81 0 1 0.0000000000000000e+00 1.5502398883369455e+01 2.8860818669312660e-01 8.4294673717653694e+00 0 1 0
4 0 1 0.0000000000000000e+00 1.8586221681866490e+01 8.2059813314826080e+00 1.0886838857762443e+01 0 0 1
201 0 1 0.0000000000000000e+00 2.1134187670970256e+01 1.0489177050080244e+01 8.5878283403171152e-01 0 1 1
163 0 1 0.0000000000000000e+00 4.7606003800929111e+00 9.3198889039212123e+00 2.9044753237482599e+00 0 -1 0
117 0 1 0.0000000000000000e+00 5.7648142361636072e+00 4.1296070932038811e+00 3.9205469497028482e+00 0 0 -1
34 0 1 0.0000000000000000e+00 9.4737134317639278e+00 1.7735973745976771e+01 3.0453422884734676e+00 0 -1 0
18 0 1 0.0000000000000000e+00 2.1282055093472465e+01 1.9984308234958789e+01 5.7537767782929317e-01 -1 0 0
165 0 1 0.0000000000000000e+00 1.4592760869068337e+01 1.2782500042226097e+01 5.2568641467793462e+00 0 0 0
245 0 1 0.0000000000000000e+00 1.5344499767981508e+01 1.9890319198345075e+01 1.0740705544130062e+01 -1 0 0
243 0 1 0.0000000000000000e+00 5.9022338468635018e+00 2.1116652340102142e+01 9.2108929989581849e+00 1 0 1
119 0 1 0.0000000000000000e+00 2.1128339755900008e+01 1.0810418611288542e+01 1.1169681505783920e+01 -1 -1 0
61 0 1 0.0000000000000000e+00 1.0002172468665654e+01 2.9827421890179915e+00 6.6045534514628352e+00 1 1 -1
148 0 1 0.0000000000000000e+00 1.8234374755071623e+00 8.5089912485143060e+00 1.2899196908150077e+00 1 0 0
27 0 1 0.0000000000000000e+00 4.6305483051212546e+00 3.6138072036193498e+00 1.3252920253636811e+01 0 0 0
50 0 1 0.0000000000000000e+00 1.3678105298651554e+01 1.2649820764183666e+01 2.2271162031155347e+00 0 -1 1
192 0 1 0.0000000000000000e+00 2.1673006759356976e+00 1.1061353298299631e+01 8.9022243657829954e+00 1 0 0
21 0 1 0.0000000000000000e+00 1.0218852277696579e+01 1.0909160053461378e+01 2.1375685564652045e+00 0 0 0
224 0 1 0.0000000000000000e+00 1.6359040699296503e+00 4.5545385423231197e+00 7.8102350724989549e+00 1 0 0
55 0 1 0.0000000000000000e+00 2.8162983901628733e+00 2.1534405019189521e+01 7.1856861637012033e+00 1 0 -1
47 0 1 0.0000000000000000e+00 4.1199081447568178e+00 7.4799017149025273e+00 7.5686723270766683e+00 1 0 0
105 0 1 0.0000000000000000e+00 3.5681874754238398e+00 1.6641682918548490e+01 3.4650654488033314e+00 1 0 0
76 0 1 0.0000000000000000e+00 1.7607585048867257e+01 1.7823011190369385e+01 9.1494384904796071e+00 0 -1 0
145 0 1 0.0000000000000000e+00 1.2245441285204194e+01 6.9721440242165089e-01 6.8587575505014806e+00 0 1 0
154 0 1 0.0000000000000000e+00 6.7833623215446357e+00 1.4159272982255904e+00 1.1665345689789989e+01 0 1 1
1 0 1 0.0000000000000000e+00 1.4280012889132651e+01 1.9404182624055487e+01 4.9023971003897715e-01 0 -1 0
237 0 1 0.0000000000000000e+00 9.7719709352547532e+00 6.4501106935338610e+00 7.3795624610956159e+00 1 1 1
170 0 1 0.0000000000000000e+00 1.0005112056624581e+01 2.1643366667062224e+01 4.7717754860107382e+00 0 0 1
65 0 1 0.0000000000000000e+00 1.2737972857810732e+01 2.1741428014571618e-01 2.2405313123999449e+00 -1 1 0
3 0 1 0.0000000000000000e+00 1.1328999576926833e+01 1.3668806925126697e+01 4.3773597356911118e+00 0 0 -1
241 0 1 0.0000000000000000e+00 7.1648894142267858e+00 8.2367258292923804e+00 5.5055568978624292e+00 0 0 0
205 0 1 0.0000000000000000e+00 2.5656042562118531e-01 1.3269223521276981e+01 2.8123279281109470e+00 1 0 1
140 0 1 0.0000000000000000e+00 1.8455894223028210e+01 2.1821442247745559e+01 7.4544205603213616e+00 0 -1 0
22 0 1 0.0000000000000000e+00 1.6391316790365956e+01 2.1853547368222124e+01 1.1092791671700888e+00 0 0 1
2 0 1 0.0000000000000000e+00 2.1621974151780641e+01 1.6371288507397693e+01 4.1453173972330362e+00 0 -1 0
108 0 1 0.0000000000000000e+00 1.2382595649877546e+01 3.3704543438763865e+00 6.3177699174451474e-01 0 1 0
68 0 1 0.0000000000000000e+00 5.4927386759947119e+00 4.4231481520502411e+00 7.1768347377589485e+00 0 0 0
213 0 1 0.0000000000000000e+00 2.1417025155554114e+01 8.6356707914051629e+00 4.3707307001413902e+00 0 0 0
91 0 1 0.0000000000000000e+00 1.0006021491953810e+01 2.0667068501897830e+01 1.0189014263106790e+00 0 -1 0
191 0 1 0.0000000000000000e+00 2.6502862742993871e+00 6.1061034872733879e+00 4.7083067540819838e+00 0 0 0
106 0 1 0.0000000000000000e+00 1.8256800554060355e+01 4.0178189460247040e+00 2.4992456632119122e+00 0 0 0
46 0 1 0.0000000000000000e+00 6.8298573636026614e+00 2.2579021861755699e-01 2.9292479976583912e+00 -1 0 0
60 0 1 0.0000000000000000e+00 3.8912744150728620e+00 5.7710500270086573e+00 1.0628345731626434e+01 0 0 -1
227 0 1 0.0000000000000000e+00 1.3280007799964984e+01 7.2844924442699766e+00 2.9544739772327206e+00 -1 0 0
11 0 1 0.0000000000000000e+00 1.5164666946139988e+01 9.4914951399429466e+00 3.3581389631635643e+00 0 0 -1
129 0 1 0.0000000000000000e+00 1.5895559897250875e+01 5.5517028053344131e+00 3.9446649771697775e+00 0 0 1
83 0 1 0.0000000000000000e+00 1.9334937512504361e+01 6.4319707030088882e+00 7.6495116393977982e+00 0 0 0
101 0 1 0.0000000000000000e+00 2.1648776883462091e+01 1.2320673269440336e+01 6.1737297499992057e+00 0 0 0
235 0 1 0.0000000000000000e+00 1.8904363827852698e+01 1.5277864999031619e+01 7.2404771300070827e+00 -1 0 1
115 0 1 0.0000000000000000e+00 1.5961858255297985e+01 1.5383674058544544e+01 2.6932641011432898e+00 1 0 -1
168 0 1 0.0000000000000000e+00 1.4415480723760064e+01 2.0496017778125427e+01 4.7158541830142324e+00 0 -1 1
199 0 1 0.0000000000000000e+00 6.1686437573219122e+00 1.9038472124153948e+01 2.1673421404593376e+00 -1 -1 1
230 0 1 0.0000000000000000e+00 2.3998238834963423e+00 1.0166806852927404e+01 5.0387507766828135e+00 0 -1 0
71 0 1 0.0000000000000000e+00 8.4026897933521383e+00 1.0133359152457484e+01 8.6873517281599124e+00 0 0 0
63 0 1 0.0000000000000000e+00 7.1610316751680392e+00 1.5503627584414231e+01 1.0989989903226295e+01 0 0 0
152 0 1 0.0000000000000000e+00 1.8144518195296790e+01 1.1020553312538462e+01 3.1053554331271696e+00 -1 0 0
151 0 1 0.0000000000000000e+00 1.8794638312305696e+00 1.5354784439113145e+00 2.4287438017001484e+00 0 1 1
240 0 1 0.0000000000000000e+00 1.2917795637957473e+01 3.4255489570223192e+00 4.5662343341778140e+00 0 0 0
193 0 1 0.0000000000000000e+00 4.7481530243644299e+00 1.6891277139101653e+01 7.3179316450321021e+00 0 0 1
79 0 1 0.0000000000000000e+00 9.4153895721174461e+00 2.1280346183017173e+01 8.5090194906107470e+00 1 0 0
56 0 1 0.0000000000000000e+00 1.8753754384626767e+01 2.1582231700961366e+01 3.9873257299968410e+00 0 -1 1
147 0 1 0.0000000000000000e+00 5.7833697024259259e+00 1.9996482239727378e+01 2.0414644994008853e+01 0 0 0
190 0 1 0.0000000000000000e+00 1.1193672864443421e+01 1.8406323003161994e+01 6.2288171568795958e+00 0 -1 0
92 0 1 0.0000000000000000e+00 2.1166827650244748e+01 1.3543106344113077e+01 9.2274606962362249e+00 0 -1 0
29 0 1 0.0000000000000000e+00 9.9121456709695170e+00 1.5459192931657309e+01 6.7262194034573639e+00 0 0 0
194 0 1 0.0000000000000000e+00 6.9238536239422857e+00 6.0905572987476537e+00 1.0660425418345969e+00 1 0 1
20 0 1 0.0000000000000000e+00 1.3218686153646992e+01 5.1098089439525403e+00 8.8325601074818039e+00 0 1 0
93 0 1 0.0000000000000000e+00 1.2740136096989216e+01 1.6671026137575410e+01 3.9625527158546792e+00 -1 0 -1
99 0 1 0.0000000000000000e+00 1.2672787613996455e+01 9.0745214954057758e+00 9.7051715204409117e+00 0 0 1
167 0 1 0.0000000000000000e+00 2.0088604681791494e+01 1.8794948486613656e+01 6.8140343695006598e+00 -1 0 0
136 0 1 0.0000000000000000e+00 7.3059262606838749e+00 1.6731692389184261e+01 2.0996838902317549e+01 0 1 0
128 0 1 0.0000000000000000e+00 2.3922150469222192e-02 5.4173323804282270e-01 9.2729528084611594e+00 1 1 0
234 0 1 0.0000000000000000e+00 6.6469928704930794e+00 1.6030738934557142e+01 3.8720265066823765e+00 1 -1 0
98 0 1 0.0000000000000000e+00 1.6533366663906406e+01 1.2747212324139628e+01 6.8616100121546730e-02 0 0 0
218 0 1 0.0000000000000000e+00 8.6946649640578890e+00 1.4317253956674815e+01 1.8867053656873731e+00 0 0 1
149 0 1 0.0000000000000000e+00 1.2579581161032031e+01 1.3189183055990073e+01 8.6091274498727870e+00 1 -1 0
122 0 1 0.0000000000000000e+00 1.5297045116087647e+01 3.7203951775156274e+00 6.8580153836700770e+00 0 0 0
64 0 1 0.0000000000000000e+00 4.5282275827514173e-01 1.6768048491673213e+01 6.3428259960042843e-01 1 -1 0
13 0 1 0.0000000000000000e+00 1.3862400721360251e+01 9.8137868450940129e+00 6.3185148220195533e+00 0 1 0
141 0 1 0.0000000000000000e+00 4.0644526457283101e+00 2.0812048409265017e+01 4.1985665335498288e+00 0 -1 1
102 0 1 0.0000000000000000e+00 2.1875286915571401e+01 8.6743503605716510e-01 5.7195112096998564e+00 -1 1 0
217 0 1 0.0000000000000000e+00 1.7679769211732633e+01 1.1039873045896956e+01 6.3850748820399446e+00 -1 0 1
246 0 1 0.0000000000000000e+00 1.9665841849458552e+01 4.2060515796067923e+00 9.5463732964213435e+00 0 1 0
153 0 1 0.0000000000000000e+00 1.4312153811008246e+01 1.6354213020314710e+01 7.2473214801101316e+00 0 0 1
96 0 1 0.0000000000000000e+00 1.6174824353755326e+01 7.3601074784276088e+00 8.2834104245020850e+00 -1 0 -1
57 0 1 0.0000000000000000e+00 3.7716617516041864e+00 1.2977709045314292e+01 2.9036657364518779e+00 1 0 1
16 0 1 0.0000000000000000e+00 7.1464582686310107e+00 1.1657034122314871e+01 4.0609489357463637e+00 1 -1 0
196 0 1 0.0000000000000000e+00 1.7005083868138748e+01 1.1710659774740535e+01 9.9604221233505683e+00 0 0 0
86 0 1 0.0000000000000000e+00 2.5889650619355349e+00 1.4023264364746936e+01 5.7355284120873486e+00 0 0 0
203 0 1 0.0000000000000000e+00 1.6005437543113814e+01 1.4451553001864177e+00 4.2402326574823546e+00 -1 0 1
157 0 1 0.0000000000000000e+00 8.7626230415176689e+00 1.7975335708054509e+01 8.5338722113788865e+00 -1 -1 1
178 0 1 0.0000000000000000e+00 1.2313181782638022e+01 2.0099814417194295e+01 1.0051397245379954e+01 -1 0 0
159 0 1 0.0000000000000000e+00 1.0964322608580844e+01 1.0496791012283238e+01 5.7052515688634644e+00 0 0 0
164 0 1 0.0000000000000000e+00 1.8052531565777500e+01 7.4867761523129497e+00 5.0721741835647238e+00 -1 0 1
125 0 1 0.0000000000000000e+00 1.1763308524894267e+01 1.6318912509676046e+01 1.0209582532413895e+01 0 0 0
229 0 1 0.0000000000000000e+00 1.1153561437160949e+01 1.6931519112059966e+01 1.6235377972178552e-01 0 0 1
58 0 1 0.0000000000000000e+00 5.9117380504142969e-01 7.8319261063185097e+00 7.1868513490416692e+00 1 0 0
30 0 1 0.0000000000000000e+00 1.8636319738715564e+01 3.3200018321682352e+00 6.4525278175249143e+00 1 1 0
73 0 1 0.0000000000000000e+00 6.5001377928245061e+00 1.4296538580363862e+00 6.4945955006378941e+00 1 1 0
104 0 1 0.0000000000000000e+00 3.6002562497377082e+00 1.4369660317796805e+01 9.7196868125731744e+00 0 0 -1
109 0 1 0.0000000000000000e+00 6.7454468131220322e+00 1.9694031132552787e+01 5.8787415621816610e+00 1 0 0
144 0 1 0.0000000000000000e+00 3.1317163885945707e+00 2.5817317989343751e+00 5.5176334013846837e+00 1 0 0
51 0 1 0.0000000000000000e+00 1.3014484687210903e+01 6.8120617808301294e+00 6.2031021011352427e+00 0 0 0
84 0 1 0.0000000000000000e+00 2.0170520370591618e+01 9.4773347490083761e+00 7.8790656269356747e+00 -1 1 0
214 0 1 0.0000000000000000e+00 7.1064958469113932e+00 1.0309109943639580e+01 7.4089318239208413e-01 0 0 1
215 0 1 0.0000000000000000e+00 3.9324010438528161e+00 2.2169576192770575e+00 9.2710278516243001e+00 0 1 1
173 0 1 0.0000000000000000e+00 7.0973562875647902e+00 7.1512267355074330e+00 9.8755509351675297e+00 0 0 1
172 0 1 0.0000000000000000e+00 1.7820568313517157e+01 9.3605918469981777e+00 -4.2612247141558118e-02 0 0 0
236 0 1 0.0000000000000000e+00 6.1647038778539303e+00 1.1419071915163336e+01 1.1524248205694185e+01 0 0 -1
126 0 1 0.0000000000000000e+00 2.0061289255591177e+01 6.7774604673226611e+00 1.8284788016766822e+00 -1 0 0
156 0 1 0.0000000000000000e+00 4.5830953000892825e+00 3.6820634101663701e+00 1.5999779746926366e+00 0 0 1
155 0 1 0.0000000000000000e+00 4.6864420560508675e+00 5.9307409394408683e-01 2.8063038126994722e-01 1 -1 0
35 0 1 0.0000000000000000e+00 3.6990190690546538e+00 7.3303348950182148e+00 2.1378609660995764e+01 0 0 -1
38 0 1 0.0000000000000000e+00 1.8248898214499796e+01 1.2032481072631569e+01 1.2791837301036916e+01 0 0 0
78 0 1 0.0000000000000000e+00 7.0823995105704149e+00 1.1221675620242497e+01 1.7217984304458348e+01 0 1 -1
90 0 1 0.0000000000000000e+00 3.1798577848232492e+00 2.1612164860203478e+01 1.2283199669950802e+01 1 0 0
134 0 1 0.0000000000000000e+00 9.1274059831854117e+00 1.3098107037116186e+01 9.6219808371694953e+00 0 0 0
176 0 1 0.0000000000000000e+00 1.4922411894917234e+01 6.6617282272541765e+00 2.0915747481353719e+01 -1 0 0
249 0 1 0.0000000000000000e+00 1.7813558757547277e+01 2.0526840270517619e+00 1.8529065126968959e+01 0 1 0
179 0 1 0.0000000000000000e+00 9.5219973402450986e+00 1.8195383687763730e+01 1.2860673113113394e+01 0 0 0
221 0 1 0.0000000000000000e+00 1.2162454810215195e+00 1.3955418665474289e+01 2.0991464117747213e+01 1 0 -1
206 0 1 0.0000000000000000e+00 1.8027110055569985e+01 7.1506769620995252e+00 1.4011014720816966e+01 -1 1 -1
54 0 1 0.0000000000000000e+00 7.9296918968043406e-01 6.3385345505937796e-01 2.0898295179900742e+01 0 0 0
171 0 1 0.0000000000000000e+00 1.7805165890567160e+01 1.7104242753930684e+01 2.1935925454558124e+01 0 0 -1
239 0 1 0.0000000000000000e+00 3.9819131725730825e+00 1.1408359029688704e+01 1.6040177998632160e+01 0 -1 0
131 0 1 0.0000000000000000e+00 4.1214226970747214e+00 1.7604824472626206e+01 1.0907092253733564e+01 -1 0 1
62 0 1 0.0000000000000000e+00 2.6410842522953994e+00 3.8650690001372356e+00 2.0758553123735609e+01 0 0 -1
75 0 1 0.0000000000000000e+00 5.2455942387796730e+00 4.5592927715333955e+00 1.6663427784799111e+01 1 0 -2
135 0 1 0.0000000000000000e+00 1.5968760470006524e+00 5.4963615321479899e+00 1.4513101745608491e+01 1 0 -1
161 0 1 0.0000000000000000e+00 1.5740623393568262e+01 1.4825782223944033e+01 1.1001620511797544e+01 0 0 1
116 0 1 0.0000000000000000e+00 1.3446384756020628e+01 1.3288055723748180e+01 1.2861838355720092e+01 0 0 0
219 0 1 0.0000000000000000e+00 1.2778203964299248e+01 2.0501131574126369e+01 1.8134867727455436e+01 0 0 0
33 0 1 0.0000000000000000e+00 5.9261285152651890e+00 1.8773510211780390e+01 1.7255927429883663e+01 0 1 0
89 0 1 0.0000000000000000e+00 1.7128853845532170e+01 3.4779829000923930e+00 1.2884521351909813e+01 -1 0 0
69 0 1 0.0000000000000000e+00 1.3858706487187343e+01 1.7056074321644346e+01 1.3003116875206388e+01 0 0 0
169 0 1 0.0000000000000000e+00 1.4076119684429029e+01 2.8380372111225656e+00 1.9597297636506390e+01 0 2 0
185 0 1 0.0000000000000000e+00 1.8525713233895736e+01 1.3274657648527796e-01 1.5602042088688149e+01 0 0 -1
133 0 1 0.0000000000000000e+00 2.2007984327042315e+01 7.1696316400419828e+00 2.0717765186293398e+01 -1 -1 -1
95 0 1 0.0000000000000000e+00 2.1237861151617942e+01 2.0006812762442969e+01 1.4506975630013525e+01 0 -1 0
66 0 1 0.0000000000000000e+00 2.1288740267098689e+01 1.9263611937073490e+00 1.7646381763900415e+01 0 0 0
183 0 1 0.0000000000000000e+00 6.3236004888159867e+00 9.8191648355029315e-01 1.5314489568775533e+01 1 0 0
24 0 1 0.0000000000000000e+00 1.0483177294995716e+01 2.6670633609402032e+00 1.3628854506472639e+01 0 1 0
28 0 1 0.0000000000000000e+00 1.0757671595605943e+01 6.3497863246872548e+00 1.0884789586779714e+01 0 0 0
166 0 1 0.0000000000000000e+00 1.3827853003390289e+00 4.8915657674830850e+00 1.6333037031703996e+00 0 1 1
25 0 1 0.0000000000000000e+00 1.0912925459443827e+01 7.2387680969724508e+00 4.2989436319252500e-01 1 0 0
49 0 1 0.0000000000000000e+00 5.2017803059107477e+00 7.4356148211635347e+00 1.3850453024572316e+01 0 -1 -1
48 0 1 0.0000000000000000e+00 1.4849123040458734e+01 1.5820915687904508e+01 1.6625215997204059e+01 0 0 -1
5 0 1 0.0000000000000000e+00 9.9349203207139301e+00 2.1677015016120919e+01 1.1571768609676653e+01 1 0 0
188 0 1 0.0000000000000000e+00 1.6660399092781219e+01 1.4790686870264974e+01 1.9248462225430494e+01 0 -2 -1
19 0 1 0.0000000000000000e+00 1.9640174068042970e+00 1.9401804084828370e+01 2.0163867694907509e+01 -1 -1 -1
43 0 1 0.0000000000000000e+00 9.4354229114441299e+00 2.1003139696115056e+01 1.5857408987072462e+01 0 -1 0
223 0 1 0.0000000000000000e+00 1.4669589491485768e-01 2.0698115977330801e+01 1.7634742455029311e+01 0 0 0
80 0 1 0.0000000000000000e+00 8.1202736331770335e+00 2.4279190336583922e+00 5.0432931611639434e-02 1 0 0
26 0 1 0.0000000000000000e+00 1.4700130567204795e+01 9.4448269101889037e-01 1.5915694666615291e+01 0 0 -1
130 0 1 0.0000000000000000e+00 1.1619905501809971e+01 1.5793654797602096e+01 1.8427579124621552e+01 0 -1 0
97 0 1 0.0000000000000000e+00 1.6881888124780502e+01 1.4263361549230305e+01 1.4749257004846145e+01 0 0 -1
220 0 1 0.0000000000000000e+00 1.6811283984640419e+01 1.0653036553911218e+01 1.9100407240876741e+01 0 0 0
107 0 1 0.0000000000000000e+00 2.0684042182349422e+01 1.7164626617490228e+01 1.5795369699871369e+01 -1 0 -1
123 0 1 0.0000000000000000e+00 1.1169436855440440e+01 9.3514835154881890e+00 1.5016941079439659e+01 0 0 0
182 0 1 0.0000000000000000e+00 5.1323897693394782e+00 1.6575446179995055e+01 1.4654015654518576e+01 1 0 1
36 0 1 0.0000000000000000e+00 7.8382745747345757e+00 1.6058893944560005e+01 1.6975155689234292e+01 1 -1 0
9 0 1 0.0000000000000000e+00 1.5420454097997945e+01 2.1543886351320467e+01 2.0046570458205416e+01 0 0 -1
67 0 1 0.0000000000000000e+00 3.9363382140013297e+00 1.4276447915269100e-01 1.8556300453406848e+01 0 0 0
244 0 1 0.0000000000000000e+00 5.2531322670557676e+00 1.3888978167563568e+01 2.1956653701414112e+01 0 0 0
85 0 1 0.0000000000000000e+00 1.1041627233427521e+01 1.3342191147299211e+01 2.0708310454666218e+01 0 0 -1
202 0 1 0.0000000000000000e+00 1.2073007455735912e+01 8.7427167942317308e+00 1.8587632421369563e+01 0 -1 0
207 0 1 0.0000000000000000e+00 1.9796806701823925e+01 3.5892707061674742e+00 1.4863755489011773e+01 -1 0 0
7 0 1 0.0000000000000000e+00 6.6396975292021612e+00 1.9614042620283968e+01 1.2790267073644079e+01 1 0 0
216 0 1 0.0000000000000000e+00 2.0775334335765493e+01 9.4025487593936496e+00 1.4230901070356358e+01 -1 0 0
142 0 1 0.0000000000000000e+00 1.1294411145920122e+01 6.2918341851270716e+00 1.5082858101149094e+01 0 1 1
226 0 1 0.0000000000000000e+00 1.5196370396093631e+01 1.9849214618968261e+01 1.5330988732006245e+01 0 0 0
44 0 1 0.0000000000000000e+00 7.9485390329602144e+00 3.9977425761371510e+00 9.8090690421401394e+00 -1 1 -1
12 0 1 0.0000000000000000e+00 1.7241912444272181e+01 1.7699856138520197e+01 1.3500328609555845e+01 0 0 0
14 0 1 0.0000000000000000e+00 5.9355887796363760e-01 1.3884327707998418e+01 1.2787558583092817e+01 1 0 -1
23 0 1 0.0000000000000000e+00 1.3322750770360742e+01 3.9160798720620598e+00 1.4032030610793909e+01 0 0 0
181 0 1 0.0000000000000000e+00 1.7900954983216131e+01 1.0211576860041323e+01 1.5749367764586319e+01 -1 0 0
175 0 1 0.0000000000000000e+00 1.4266225968428875e+01 1.2780963539435838e+01 1.6584487155678715e+01 0 0 0
225 0 1 0.0000000000000000e+00 8.5610337497345803e+00 3.8897739682329080e+00 1.6751509674240395e+01 0 0 0
103 0 1 0.0000000000000000e+00 7.6027206653380492e+00 1.3024524738352168e+01 1.4263674548926419e+01 0 0 0
41 0 1 0.0000000000000000e+00 1.7489323815925871e+01 7.5355470900587980e+00 1.8641374347809922e+01 -1 0 -1
121 0 1 0.0000000000000000e+00 1.0816806774577778e+01 5.6297789316240898e+00 1.9223414145829651e+01 0 0 0
231 0 1 0.0000000000000000e+00 8.1200168348454458e+00 1.3619530361176523e+01 1.9743930472935887e+01 -1 -1 0
124 0 1 0.0000000000000000e+00 1.9952745114171611e-01 1.6238779678277155e+01 1.0297369360620561e+01 0 0 1
232 0 1 0.0000000000000000e+00 1.0122228186759349e+01 1.2983040737174269e+01 1.6674904152270528e+01 0 0 1
88 0 1 0.0000000000000000e+00 1.2275166229690089e+00 1.9465088873160788e+01 9.8797543489010415e+00 1 0 0
143 0 1 0.0000000000000000e+00 4.3197343766309855e+00 1.3356292568831160e+01 1.3553539308967162e+01 1 0 -1
6 0 1 0.0000000000000000e+00 4.1399137267836696e+00 2.0524851406679026e+01 1.5228628873580451e+01 1 0 -1
42 0 1 0.0000000000000000e+00 1.6064410983128596e+01 3.9867036665848357e+00 9.9020357343121166e+00 1 0 -1
120 0 1 0.0000000000000000e+00 1.9126400856349555e+01 1.5663239868813220e+01 1.1585574038688037e+01 0 -1 0
184 0 1 0.0000000000000000e+00 1.0752615074389503e+01 1.5110153181660962e+01 1.4037589483284028e+01 0 0 1
59 0 1 0.0000000000000000e+00 2.3972923918543834e+00 1.7646994842569015e+01 1.7488631076698340e+01 0 -1 -1
242 0 1 0.0000000000000000e+00 7.4509873211084674e+00 7.4500176904789948e+00 1.9924920266943786e+01 0 0 0
180 0 1 0.0000000000000000e+00 1.2341976120064293e+01 2.0668691963324065e+01 1.3439247746982135e+01 1 -1 1
248 0 1 0.0000000000000000e+00 1.0169352087417336e+00 6.7470497522250499e+00 1.0365521992638220e+01 1 0 0
70 0 1 0.0000000000000000e+00 2.0612768631496913e+01 1.2710890438386619e+01 1.5622069288209779e+01 -1 1 -1
37 0 1 0.0000000000000000e+00 1.0999647977402285e+00 9.5056775682926897e+00 1.6525941890425962e+01 1 0 0
111 0 1 0.0000000000000000e+00 1.6399156813616145e+01 4.7512191829999564e+00 1.6628209113445998e+01 -1 0 0
200 0 1 0.0000000000000000e+00 1.9435494233399506e+00 1.7147277015238338e+01 1.3439731941085141e+01 0 -1 0
187 0 1 0.0000000000000000e+00 2.0631775183696597e+01 5.6762619717311003e+00 1.2794538144494341e+01 -1 0 0
204 0 1 0.0000000000000000e+00 2.0600123470775550e+01 6.3480134954063363e+00 1.6960727368395183e+01 -1 1 0
53 0 1 0.0000000000000000e+00 2.0635929606499175e+01 9.9311200171626766e+00 1.8891108741913882e+01 0 1 0
228 0 1 0.0000000000000000e+00 1.1811550588510524e+00 3.1335224586815551e+00 1.1387768968151423e+01 1 1 1
198 0 1 0.0000000000000000e+00 9.3655338088245834e+00 1.0413505878703990e+01 2.0348608497925980e+01 0 0 0
72 0 1 0.0000000000000000e+00 1.9991504912309690e+00 1.4632572801892307e+00 1.5272144791863672e+01 1 1 0
17 0 1 0.0000000000000000e+00 1.1843254391340116e+01 1.7701649394145768e+01 1.6006053351223031e+01 0 0 0
211 0 1 0.0000000000000000e+00 1.6925580882186941e+00 1.3806967242217993e+01 1.6783621838171996e+01 0 1 0
238 0 1 0.0000000000000000e+00 1.1531374940972237e+01 2.1947665151796669e+00 1.6797147100158639e+01 0 1 0
210 0 1 0.0000000000000000e+00 2.1341198499471076e+01 1.7746484906904314e+01 1.9069076024330073e+01 0 0 0
150 0 1 0.0000000000000000e+00 2.7064627245308985e+00 1.9823962213453072e+01 1.4188117446350648e+00 1 -1 1
39 0 1 0.0000000000000000e+00 2.1168212722215669e+00 5.7611637920800174e+00 1.7780226248555657e+01 1 1 0
158 0 1 0.0000000000000000e+00 3.7071106675552623e+00 1.6752229333738697e+01 2.1320551711470067e+01 0 -1 1
74 0 1 0.0000000000000000e+00 1.4010599193768417e+01 1.5373892564573676e+01 2.1631612497172597e+01 0 0 0
233 0 1 0.0000000000000000e+00 1.1092139307939815e+01 1.1470453839719877e+01 1.2085353930798174e+01 -1 2 1
15 0 1 0.0000000000000000e+00 2.0553614090656097e+01 1.3293579516953205e+00 1.2808775374507178e+01 0 1 0
127 0 1 0.0000000000000000e+00 8.3743610860069086e+00 7.9958354190903815e+00 1.6550612605207576e+01 1 0 0
189 0 1 0.0000000000000000e+00 1.7699586809100580e+01 1.8569011462782115e+01 1.8414281777913246e+01 0 0 0
186 0 1 0.0000000000000000e+00 1.3667253502447782e+01 1.1399588280801147e+01 1.9582293333734754e+01 -1 0 0
110 0 1 0.0000000000000000e+00 5.7453094143690455e+00 3.6478134974810881e+00 1.9762504178415710e+01 1 0 -1
160 0 1 0.0000000000000000e+00 1.4388211275335678e+01 8.5128408009277443e+00 1.5787896814913271e+01 0 1 0
208 0 1 0.0000000000000000e+00 4.5927368181091515e+00 7.9371089830742756e+00 1.7158586090531273e+01 -1 0 0
118 0 1 0.0000000000000000e+00 4.8759402478968132e+00 1.0983877602169903e+01 1.9956207482255465e+01 0 0 0
222 0 1 0.0000000000000000e+00 2.0143983443964771e+01 1.2896109550559803e+01 1.9145622252456995e+01 -1 0 -1
250 0 1 0.0000000000000000e+00 9.3280900119851289e+00 1.9325602412331030e+01 1.9621964833893891e+01 -1 -1 1
209 0 1 0.0000000000000000e+00 8.6174727600569199e+00 9.0855186820842277e+00 1.2542391573019923e+01 0 0 0
162 0 1 0.0000000000000000e+00 7.5997464933530994e+00 5.4210932534714127e+00 1.3384975484219920e+01 -1 0 -1
32 0 1 0.0000000000000000e+00 2.1690849383476536e+00 9.9957200039510692e+00 1.3282729632629442e+01 0 -1 -1
8 0 1 0.0000000000000000e+00 1.9647078804357228e+01 1.3848881872933820e+01 6.5297100762190508e-01 0 0 0
87 0 1 0.0000000000000000e+00 4.3107915922265541e+00 1.4392336944698481e+01 1.8494600064598643e+01 0 0 -1
52 0 1 0.0000000000000000e+00 1.3965335207722491e+01 1.6111416263084077e+00 1.1772917716243681e+01 0 0 0
113 0 1 0.0000000000000000e+00 1.8934364065200995e+01 2.1253831283523553e+01 1.9597481256890205e+01 0 0 -1
10 0 1 0.0000000000000000e+00 7.1578715449248218e+00 -3.7051215002471993e-02 1.8448044544638023e+01 -1 1 0
132 0 1 0.0000000000000000e+00 1.3734581176444944e+01 9.2493853869756908e+00 -5.4046314340078533e-02 1 0 0
139 0 1 0.0000000000000000e+00 1.9782285136411694e+01 1.5869944427980751e+00 5.5726928372992079e-01 0 0 1
174 0 1 0.0000000000000000e+00 1.7945459634460569e+01 2.1337963537844438e+01 1.2150684165166464e+01 1 0 0
197 0 1 0.0000000000000000e+00 1.5579816800509493e+01 2.9061023307933445e+00 7.9383688880357672e-01 0 1 0
82 0 1 0.0000000000000000e+00 1.1411270677062422e+01 2.3132266707898359e+00 9.8006351240912597e+00 0 0 1
94 0 1 0.0000000000000000e+00 1.4720450982109318e+01 1.8100430561441208e+01 1.9079770482560100e+01 1 0 -1
100 0 1 0.0000000000000000e+00 1.4918032015321591e+01 6.9898721539071511e+00 1.2150458899119371e+01 -1 0 0
114 0 1 0.0000000000000000e+00 1.5309663081002524e+01 1.0633505103625723e+01 1.3262622594084336e+01 0 0 0

Velocities

195 -7.3323731754860457e+00 -9.0994547936901926e-01 -2.8836517166311246e+00
112 -4.7355572328573334e-02 4.2188756077371021e+00 -3.8480180595777878e+00
146 -8.0117372870845998e+00 -8.7001685947875540e+00 -6.8832628295983245e+00
45 -1.3619571708494080e+00 1.0687309434023149e+01 -2.8175101463806955e+00
40 4.4703983118451802e+00 2.9795109729055591e+00 2.7711187440380751e+00
137 -1.0552536646928115e+01 -9.9971319553645119e-02 2.3084198229394062e+00
77 1.2777083561762399e+00 -8.5869627632023562e+00 -3.1559693589074782e+00
212 -5.7643692293224005e+00 -1.6626440105917093e+00 2.8594620284292760e+00
247 1.1982830501816091e+00 -4.2627633138133811e+00 -8.2311555950208959e-01
138 4.9319105872982216e-01 1.2448976248861143e+00 -6.0385373177428079e+00
31 -5.2519075309596728e+00 -3.8215104250442999e-01 -4.8471454892122179e-01
177 1.6648203951324956e+00 -2.0045041653213658e+00 -8.5313401620621709e-01
81 -1.1565975490484682e+01 -4.1593214116643695e+00 -3.8316307566616997e-01
4 1.1267207303492581e+01 -1.4992982242332042e+00 -6.1171154871637610e+00
201 -4.1014661315874754e+00 -2.0673729115927291e+00 3.4931109764077757e+00
163 4.5023675794788298e+00 -1.5699036288779127e+00 -1.4836848687789728e+00
117 -4.3507445964189158e+00 -3.2625670965104092e+00 -6.8478646405354144e+00
34 -1.6277172379967986e+00 -4.6107140914572078e+00 5.0200628837000432e+00
18 -3.7070504464139775e+00 6.7152268285797800e-01 -5.3774159717765757e+00
165 -2.6875832222510132e-01 4.8640291880953723e-01 8.2425932975220562e+00
245 7.8399760876332425e-01 5.7737031697786667e-01 -2.1551792286804483e+00
243 1.6555133823360579e+00 -5.9333516122262111e+00 4.8830389788085604e+00
119 8.6145006460353690e-01 4.1168608005154517e-01 -3.5104981066388130e+00
61 5.8327753786613892e+00 -1.0161521520369317e+00 -1.3823181303997951e+00
148 6.3416281461605069e+00 5.5237072529790501e+00 3.9739289282608197e+00
27 3.0938896404720451e+00 1.7437803576370283e+00 2.3263288281234713e+00
50 -2.6430107866365886e+00 -1.3605409567525324e+00 1.7446705115965699e+00
192 2.0205780255374002e+00 -2.9807063636704827e+00 1.7693143249950434e+00
21 -1.0267251745864190e+01 -5.3988664037368572e+00 -1.9976483630943347e+00
224 5.7050272355561864e+00 2.4273614148930238e+00 1.2696300987857696e+00
55 -1.2010971301273333e+01 7.4753428955464223e+00 5.2627869703530790e+00
47 1.9968555157738042e+00 1.5410471318088570e-01 3.0117361666200830e+00
105 6.2600412176326055e+00 -1.0458968575071543e+00 5.6669111187069579e+00
76 7.8626606562822943e+00 1.8780619728666632e+00 1.1554859655879115e+00
145 1.2855121418380275e+00 -4.1380832184269076e+00 1.0771922725741996e+00
154 -1.2158803004785796e+00 -8.1891564324635056e+00 4.6112121366131156e+00
1 9.4282025171492678e-01 -3.4721816560426570e+00 -9.9415056173664806e-01
237 2.1591773107369192e-01 4.2200229779596823e+00 2.3434464742384100e+00
170 -5.3580300861527812e+00 4.8876066894766677e+00 -2.4314918755731254e+00
65 -2.6759356859052343e+00 -1.4226103662172556e+00 -4.0904834514169908e+00
3 3.8269253035296341e-01 8.6043313426146706e-01 1.3226343815941960e-01