LAMMPS data file via write_data, version 24 Oct 2018, timestep = 500

250 atoms
1 atom types

1.3884464303046684e-03 2.1998611553569951e+01 xlo xhi
1.3884464303046684e-03 2.1998611553569951e+01 ylo yhi
1.3884464303046684e-03 2.1998611553569951e+01 zlo zhi
0.0000000000000000e+00 0.0000000000000000e+00 0.0000000000000000e+00 xy xz yz

Masses

1 22.9898

Atoms # full

195 0 1 0.0000000000000000e+00 1.8908849773553523e+01 1.4230769538305569e+01 4.4154957791093672e+00 1 1 1
112 0 1 0.0000000000000000e+00 1.8490722467068537e+01 1.9193277173008205e+01 1.0093758950220082e+01 0 0 0
146 0 1 0.0000000000000000e+00 8.2547208554807217e-01 1.9931755303190375e+01 4.1660361971919482e+00 1 1 1
45 0 1 0.0000000000000000e+00 5.8582712334062492e+00 1.1961447311147047e+01 7.5287114089439484e+00 0 0 0
40 0 1 0.0000000000000000e+00 1.6173160789908984e+01 1.8170659085406196e+01 5.1272888166387229e+00 -1 0 -1
137 0 1 0.0000000000000000e+00 1.7954523035552636e+00 1.7605714414708761e+01 6.7268317893593714e+00 0 -1 0
77 0 1 0.0000000000000000e+00 9.9124850491954426e+00 6.7424999437522226e+00 3.6686428706899799e+00 0 0 0
212 0 1 0.0000000000000000e+00 2.1623756602891074e+01 4.4470825354631049e+00 4.9063452875297671e+00 0 0 0
247 0 1 0.0000000000000000e+00 1.9281880761142716e+01 5.1708069782635455e+00 2.1329379392211351e+01 -1 0 0
138 0 1 0.0000000000000000e+00 1.5101821830707254e+00 1.0325289401077850e+01 2.0871233327797590e+01 1 0 0
31 0 1 0.0000000000000000e+00 1.0194052647115486e+01 7.5423943273125382e-01 1.9728420830028078e+01 0 0 0
177 0 1 0.0000000000000000e+00 9.5331542211518201e+00 2.4786588103825951e+00 3.1772290214981882e+00 0 0 1
81 0 1 0.0000000000000000e+00 1.5975961146357539e+01 1.0878191142938405e-01 8.4128672775444304e+00 0 1 0
4 0 1 0.0000000000000000e+00 1.8370019108216528e+01 8.2650834661773427e+00 1.1029304610123733e+01 0 0 1
201 0 1 0.0000000000000000e+00 2.1219949372217396e+01 1.0463653015135973e+01 1.1536740295514358e+00 0 1 1
163 0 1 0.0000000000000000e+00 4.7982582703076284e+00 9.1973586014257496e+00 2.5704269542523126e+00 0 -1 0
117 0 1 0.0000000000000000e+00 5.8978935900482945e+00 4.3161631523783877e+00 4.0594977046181189e+00 0 0 -1
34 0 1 0.0000000000000000e+00 9.3389082814651765e+00 1.7620422367540129e+01 3.3712938700757435e+00 0 -1 0
18 0 1 0.0000000000000000e+00 2.0936289130413012e+01 1.9846984354887237e+01 7.0804138951523243e-01 -1 0 0
165 0 1 0.0000000000000000e+00 1.4594642462820154e+01 1.2795437133011445e+01 4.9544779093299152e+00 0 0 0
245 0 1 0.0000000000000000e+00 1.5423702584033135e+01 2.0193439580624940e+01 1.1881908661031769e+01 -1 0 0
243 0 1 0.0000000000000000e+00 5.9181331412803102e+00 2.0940870127883091e+01 8.9630369631211977e+00 1 0 1
119 0 1 0.0000000000000000e+00 2.1172633760238025e+01 1.0935136858925741e+01 1.1337856205587727e+01 -1 -1 0
61 0 1 0.0000000000000000e+00 1.0253725939993148e+01 3.0155231632455779e+00 6.4428820741157047e+00 1 1 -1
148 0 1 0.0000000000000000e+00 1.6520358627076046e+00 8.3648397141670490e+00 1.4357203396304179e+00 1 0 0
27 0 1 0.0000000000000000e+00 4.6549578129398981e+00 3.5841918196746358e+00 1.3214660180154437e+01 0 0 0
50 0 1 0.0000000000000000e+00 1.3303766863156676e+01 1.2938701028973034e+01 1.8937205651493636e+00 0 -1 1
192 0 1 0.0000000000000000e+00 1.9994237564290980e+00 1.1196844476744122e+01 8.7137870189515656e+00 1 0 0
21 0 1 0.0000000000000000e+00 1.0151402174448526e+01 1.0831415188782717e+01 2.3294386039367008e+00 0 0 0
224 0 1 0.0000000000000000e+00 1.6099187361649268e+00 4.4639605601056882e+00 7.7125644989637721e+00 1 0 0
55 0 1 0.0000000000000000e+00 2.5383474224918223e+00 2.1652369553255781e+01 7.0863725927368435e+00 1 0 -1
47 0 1 0.0000000000000000e+00 4.0929837554198238e+00 7.2871785685433750e+00 7.5001114472760779e+00 1 0 0
105 0 1 0.0000000000000000e+00 3.3952934515173370e+00 1.6462904211953642e+01 3.5674528832729857e+00 1 0 0
76 0 1 0.0000000000000000e+00 1.5441725693045088e+01 1.8650058948759622e+01 8.3663331222154103e+00 0 -1 0
145 0 1 0.0000000000000000e+00 1.2463093125346454e+01 7.1147006716069827e-01 7.1608258146499422e+00 0 1 0
154 0 1 0.0000000000000000e+00 6.7541701891974357e+00 1.3590462387539892e+00 1.1593013464744757e+01 0 1 1
1 0 1 0.0000000000000000e+00 1.4016000859997581e+01 1.8925006420196762e+01 5.3502701247402262e-01 0 -1 0
237 0 1 0.0000000000000000e+00 9.8211958780064368e+00 6.6709181205656201e+00 7.2891653736107251e+00 1 1 1
170 0 1 0.0000000000000000e+00 1.0183966425899337e+01 2.1408004493859639e+01 5.0252921777609760e+00 0 0 1
65 0 1 0.0000000000000000e+00 1.2372081561660295e+01 4.8368324048670014e-01 1.9871820432218699e+00 -1 1 0
3 0 1 0.0000000000000000e+00 1.1460983256120373e+01 1.3649575762412281e+01 4.5682632619068340e+00 0 0 -1
241 0 1 0.0000000000000000e+00 7.0353820020343765e+00 8.2478226589496551e+00 5.4778937863400445e+00 0 0 0
205 0 1 0.0000000000000000e+00 3.5813040611780139e-01 1.3419400292011694e+01 2.8625190663484537e+00 1 0 1
140 0 1 0.0000000000000000e+00 1.8137746227737122e+01 2.0662893210453962e+01 6.7904464625143621e+00 0 -1 0
22 0 1 0.0000000000000000e+00 1.6389677251464370e+01 2.1488797466499232e+01 1.6443807335973279e+00 0 0 1
2 0 1 0.0000000000000000e+00 2.0836961674230476e+01 1.7154706777712576e+01 3.9150556555258920e+00 0 -1 0
108 0 1 0.0000000000000000e+00 1.2307768731031699e+01 3.5943348646398059e+00 5.0381621866033188e-01 0 1 0
68 0 1 0.0000000000000000e+00 5.4728003967081422e+00 4.2524334677207269e+00 7.3510452612083830e+00 0 0 0
213 0 1 0.0000000000000000e+00 2.1450564049365269e+01 8.4421792676284504e+00 4.5983628321824312e+00 0 0 0
91 0 1 0.0000000000000000e+00 1.0213780673568651e+01 2.0205930083914211e+01 9.7711350107456452e-01 0 -1 0
191 0 1 0.0000000000000000e+00 2.8641335436343507e+00 5.9706748582037568e+00 4.6457287593543670e+00 0 0 0
106 0 1 0.0000000000000000e+00 1.8459328161358414e+01 3.7683357639078583e+00 2.9758098615424604e+00 0 0 0
46 0 1 0.0000000000000000e+00 6.5954604668802119e+00 1.2846243537276403e-01 2.9289115022231069e+00 -1 0 0
60 0 1 0.0000000000000000e+00 4.0188382783690866e+00 5.9298057279786649e+00 1.0606537454192187e+01 0 0 -1
227 0 1 0.0000000000000000e+00 1.3279499961553560e+01 7.1821492403212668e+00 3.1079382524070938e+00 -1 0 0
11 0 1 0.0000000000000000e+00 1.5079323254859505e+01 9.4877844974671746e+00 3.3924970427274541e+00 0 0 -1
129 0 1 0.0000000000000000e+00 1.5986121163004146e+01 5.4468853760161373e+00 3.7030147684413866e+00 0 0 1
83 0 1 0.0000000000000000e+00 1.9244127712589581e+01 6.0191442310209098e+00 7.0129564488138731e+00 0 0 0
101 0 1 0.0000000000000000e+00 2.1580274384411169e+01 1.2288059550378129e+01 6.1059779624492529e+00 0 0 0
235 0 1 0.0000000000000000e+00 1.8483124199717707e+01 1.6078312772576108e+01 7.3259750627426623e+00 -1 0 1
115 0 1 0.0000000000000000e+00 1.5761932671084978e+01 1.5460340762590066e+01 2.6473221267955789e+00 1 0 -1
168 0 1 0.0000000000000000e+00 1.4332926264011380e+01 2.0543015522222696e+01 5.0378370865773912e+00 0 -1 1
199 0 1 0.0000000000000000e+00 6.1067590584449292e+00 1.8543306924883314e+01 1.9862822245958012e+00 -1 -1 1
230 0 1 0.0000000000000000e+00 2.5452953598221217e+00 9.9506924659681406e+00 5.0766098935653146e+00 0 -1 0
71 0 1 0.0000000000000000e+00 8.5979309815999958e+00 9.8313555755383764e+00 8.6439370202722206e+00 0 0 0
63 0 1 0.0000000000000000e+00 7.1436708795285382e+00 1.5254032866160456e+01 1.0602341518570011e+01 0 0 0
152 0 1 0.0000000000000000e+00 1.8128060629528616e+01 1.0993752836411712e+01 3.2153685991854228e+00 -1 0 0
151 0 1 0.0000000000000000e+00 2.3676594434395666e+00 1.5252914768037602e+00 2.5943859070709046e+00 0 1 1
240 0 1 0.0000000000000000e+00 1.2862707772746781e+01 3.4585991852696800e+00 4.5039791170610668e+00 0 0 0
193 0 1 0.0000000000000000e+00 4.7377716657658286e+00 1.7300197895830866e+01 7.7773081160784132e+00 0 0 1
79 0 1 0.0000000000000000e+00 9.5702052396905142e+00 2.1333366857912413e+01 8.4340270064702985e+00 1 0 0
56 0 1 0.0000000000000000e+00 1.9130964048881680e+01 2.1819677535859153e+01 3.5661116720634718e+00 0 -1 1
147 0 1 0.0000000000000000e+00 5.3476240144185496e+00 1.9940210188383833e+01 2.0545848675972127e+01 0 0 0
190 0 1 0.0000000000000000e+00 1.1544619563229189e+01 1.8384283928486543e+01 6.3099434355445672e+00 0 -1 0
92 0 1 0.0000000000000000e+00 2.0896441802060636e+01 1.3807568080346089e+01 9.1128217293821070e+00 0 -1 0
29 0 1 0.0000000000000000e+00 9.8866739707710867e+00 1.5529759536190898e+01 6.7114721893016069e+00 0 0 0
194 0 1 0.0000000000000000e+00 7.2153185177688544e+00 6.2928110507244295e+00 1.0971523482882015e+00 1 0 1
20 0 1 0.0000000000000000e+00 1.3219804542937407e+01 5.3355724859861997e+00 8.7576191135642905e+00 0 1 0
93 0 1 0.0000000000000000e+00 1.2603477422789391e+01 1.6652944420693672e+01 3.8292691265119529e+00 -1 0 -1
99 0 1 0.0000000000000000e+00 1.2650332170543482e+01 9.1640872778617783e+00 9.6974352022989585e+00 0 0 1
167 0 1 0.0000000000000000e+00 2.1237523142314561e+01 1.9395450006490229e+01 7.5219906637771645e+00 -1 0 0
136 0 1 0.0000000000000000e+00 7.4400248782004610e+00 1.6530616535449656e+01 2.0959759485258072e+01 0 1 0
128 0 1 0.0000000000000000e+00 2.1320073869261652e+01 5.2072412667056722e-01 9.9210519839082174e+00 0 1 0
234 0 1 0.0000000000000000e+00 6.4505119823725252e+00 1.5781540549500763e+01 4.6508908790030725e+00 1 -1 0
98 0 1 0.0000000000000000e+00 1.6607373860136430e+01 1.2813621002682277e+01 3.1273143460457919e-01 0 0 0
218 0 1 0.0000000000000000e+00 8.5937098300491996e+00 1.4460306655416961e+01 2.2574258608348634e+00 0 0 1
149 0 1 0.0000000000000000e+00 1.2380956285296971e+01 1.2759854834317247e+01 8.7946964579905647e+00 1 -1 0
122 0 1 0.0000000000000000e+00 1.4982593686588254e+01 4.0523096159639787e+00 6.7539241609898664e+00 0 0 0
64 0 1 0.0000000000000000e+00 5.0741641887728139e-01 1.6627491799407633e+01 6.5484515876851879e-01 1 -1 0
13 0 1 0.0000000000000000e+00 1.4191126420991365e+01 1.0006927725919791e+01 6.5722599353237676e+00 0 1 0
141 0 1 0.0000000000000000e+00 4.2875651384519857e+00 2.0106848719398027e+01 4.2744208437595086e+00 0 -1 1
102 0 1 0.0000000000000000e+00 2.1963229327536823e+01 1.0544701541716497e+00 6.0120544967517748e+00 -1 1 0
217 0 1 0.0000000000000000e+00 1.7776257961200166e+01 1.1627234861099682e+01 6.5668756541243285e+00 -1 0 1
246 0 1 0.0000000000000000e+00 1.9826071470390385e+01 4.7061735001937173e+00 9.5690270888508326e+00 0 1 0
153 0 1 0.0000000000000000e+00 1.4222535847625908e+01 1.5666630949925628e+01 7.1384752935055085e+00 0 0 1
96 0 1 0.0000000000000000e+00 1.6236977838697420e+01 7.6377178110492308e+00 8.4921394027263943e+00 -1 0 -1
57 0 1 0.0000000000000000e+00 3.9578697263587994e+00 1.2735538562703423e+01 2.9475187467632633e+00 1 0 1
16 0 1 0.0000000000000000e+00 7.1373412533300407e+00 1.1706286770589518e+01 4.3163279005072406e+00 1 -1 0
196 0 1 0.0000000000000000e+00 1.6613589746665699e+01 1.1914015888696897e+01 1.0021263892951984e+01 0 0 0
86 0 1 0.0000000000000000e+00 2.9593385075612164e+00 1.3969101142460811e+01 5.8988199852700127e+00 0 0 0
203 0 1 0.0000000000000000e+00 1.5890674305397651e+01 1.4497509974951730e+00 4.2740502087591672e+00 -1 0 1
157 0 1 0.0000000000000000e+00 8.8308844084529721e+00 1.8207226567705810e+01 8.4256640803405976e+00 -1 -1 1
178 0 1 0.0000000000000000e+00 1.2504142431033172e+01 2.0053220339288785e+01 1.0276308178895187e+01 -1 0 0
159 0 1 0.0000000000000000e+00 1.1169371095272819e+01 1.0440036886678199e+01 5.9043238124041917e+00 0 0 0
164 0 1 0.0000000000000000e+00 1.7727025502081542e+01 7.7994366667976864e+00 4.9887847907849796e+00 -1 0 1
125 0 1 0.0000000000000000e+00 1.1481132755147225e+01 1.6069414892761284e+01 1.0403406894366384e+01 0 0 0
229 0 1 0.0000000000000000e+00 1.1119978716615705e+01 1.6707093433198043e+01 3.0279159225235497e-01 0 0 1
58 0 1 0.0000000000000000e+00 5.9468622906981372e-01 7.7594354157938161e+00 7.5603018367862154e+00 1 0 0
30 0 1 0.0000000000000000e+00 1.8593920675680987e+01 2.9627367304232188e+00 6.7270334276878536e+00 1 1 0
73 0 1 0.0000000000000000e+00 6.4883036124311380e+00 1.6344675599781007e+00 6.5050273489851174e+00 1 1 0
104 0 1 0.0000000000000000e+00 3.3528764234911979e+00 1.4124710849026172e+01 9.9134829441766286e+00 0 0 -1
109 0 1 0.0000000000000000e+00 7.0356181404891869e+00 1.9495676555851272e+01 5.8309174217093256e+00 1 0 0
144 0 1 0.0000000000000000e+00 3.4177200901812643e+00 2.6312843433355622e+00 5.5564825295369964e+00 1 0 0
51 0 1 0.0000000000000000e+00 1.3200471321458375e+01 7.0743449418898949e+00 6.2622284023924166e+00 0 0 0
84 0 1 0.0000000000000000e+00 1.9841362528881856e+01 9.2513423389707121e+00 7.9005855595426642e+00 -1 1 0
214 0 1 0.0000000000000000e+00 7.1237851156518230e+00 1.0542772601142133e+01 8.8492189029105561e-01 0 0 1
215 0 1 0.0000000000000000e+00 3.8160511375830488e+00 2.1240966163237487e+00 9.3526427931518441e+00 0 1 1
173 0 1 0.0000000000000000e+00 7.0733832665460845e+00 6.9909701277868743e+00 9.7464804608884421e+00 0 0 1
172 0 1 0.0000000000000000e+00 1.7833842751268566e+01 9.4518728493683426e+00 4.3682312877553947e-02 0 0 0
236 0 1 0.0000000000000000e+00 5.7823014472651080e+00 1.1214819958036053e+01 1.1652817133356329e+01 0 0 -1
126 0 1 0.0000000000000000e+00 2.0023891896133676e+01 6.6558622327646155e+00 1.8161176725218664e+00 -1 0 0
156 0 1 0.0000000000000000e+00 4.7808627496423650e+00 3.8818905601064135e+00 1.7191928136147940e+00 0 0 1
155 0 1 0.0000000000000000e+00 4.8710832721255644e+00 7.9330693444610600e-01 1.9526322109093018e-02 1 -1 0
35 0 1 0.0000000000000000e+00 3.8495340758304342e+00 7.5424775980886354e+00 2.1512504327667735e+01 0 0 -1
38 0 1 0.0000000000000000e+00 1.8517489074630330e+01 1.1982177523996199e+01 1.2534429593226925e+01 0 0 0
78 0 1 0.0000000000000000e+00 7.2256635692377893e+00 1.1153132778359668e+01 1.7180298696844424e+01 0 1 -1
90 0 1 0.0000000000000000e+00 3.3756163064965090e+00 2.1904752269324341e+01 1.3072909763137050e+01 1 0 0
134 0 1 0.0000000000000000e+00 8.9822078737456881e+00 1.2729013399608174e+01 9.3267597872476546e+00 0 0 0
176 0 1 0.0000000000000000e+00 1.4820654327212008e+01 6.8084187677834089e+00 2.0631781150013651e+01 -1 0 0
249 0 1 0.0000000000000000e+00 1.7471557942011991e+01 1.6707961803766460e+00 1.8742363320715793e+01 0 1 0
179 0 1 0.0000000000000000e+00 9.4188300622790351e+00 1.7863360466883169e+01 1.3124217617901312e+01 0 0 0
221 0 1 0.0000000000000000e+00 1.3654324427218363e+00 1.3751954527007062e+01 2.0839501515018323e+01 1 0 -1
206 0 1 0.0000000000000000e+00 1.8018480576548043e+01 7.4807079122699403e+00 1.4176682345197452e+01 -1 1 -1
54 0 1 0.0000000000000000e+00 7.9591836131748450e-01 9.7327146670183839e-01 2.0996867609902299e+01 0 0 0
171 0 1 0.0000000000000000e+00 1.7759669276718057e+01 1.7149998789966350e+01 2.3443828383269716e-01 0 0 0
239 0 1 0.0000000000000000e+00 4.2545522458662379e+00 1.1294160404206556e+01 1.6020934317986924e+01 0 -1 0
131 0 1 0.0000000000000000e+00 4.0844865447261469e+00 1.7228870517327145e+01 1.1152540727736817e+01 -1 0 1
62 0 1 0.0000000000000000e+00 3.0616634966998637e+00 3.8631754171483434e+00 2.0742368970807348e+01 0 0 -1
75 0 1 0.0000000000000000e+00 5.3434202269864244e+00 4.7571360261355808e+00 1.6414661921183782e+01 1 0 -2
135 0 1 0.0000000000000000e+00 1.6928630455559486e+00 6.0236879479735181e+00 1.4578867103051033e+01 1 0 -1
161 0 1 0.0000000000000000e+00 1.5902336625164754e+01 1.5526327445272793e+01 1.0759435965121707e+01 0 0 1
116 0 1 0.0000000000000000e+00 1.3743654728007332e+01 1.3395276389299905e+01 1.2465199661947716e+01 0 0 0
219 0 1 0.0000000000000000e+00 1.2552122151868128e+01 2.0681655768326277e+01 1.8256414664267140e+01 0 0 0
33 0 1 0.0000000000000000e+00 5.5811507493596411e+00 1.8266378473730274e+01 1.7957809351800606e+01 0 1 0
89 0 1 0.0000000000000000e+00 1.7219811929592524e+01 3.9817451799656771e+00 1.2754442566127141e+01 -1 0 0
69 0 1 0.0000000000000000e+00 1.3737019758313199e+01 1.7202427145268956e+01 1.3043143505596783e+01 0 0 0
169 0 1 0.0000000000000000e+00 1.4044200109379826e+01 2.8124893538442661e+00 1.9364017344494627e+01 0 2 0
185 0 1 0.0000000000000000e+00 1.8188382936187100e+01 2.1707264207038541e+01 1.5678459559708962e+01 0 -1 -1
133 0 1 0.0000000000000000e+00 2.1739808378297912e+01 6.8573587982162616e+00 2.0624595509265269e+01 -1 -1 -1
95 0 1 0.0000000000000000e+00 2.1211790422204825e+01 1.9656210460505001e+01 1.3173601970922951e+01 0 -1 0
66 0 1 0.0000000000000000e+00 2.1512719249845379e+01 2.4501148063931630e+00 1.8682122874586774e+01 0 0 0
183 0 1 0.0000000000000000e+00 6.2667531291996967e+00 1.2028171699404093e+00 1.5213490113962848e+01 1 0 0
24 0 1 0.0000000000000000e+00 1.0388366371057954e+01 2.6589573683175427e+00 1.3656312517061759e+01 0 1 0
28 0 1 0.0000000000000000e+00 1.0677890852834741e+01 6.5522503907068002e+00 1.0736202674679033e+01 0 0 0
166 0 1 0.0000000000000000e+00 1.3558268048540014e+00 4.7749462025232630e+00 1.4430914757361499e+00 0 1 1
25 0 1 0.0000000000000000e+00 1.1123410060914926e+01 7.1878358385644896e+00 4.5051366984047642e-01 1 0 0
49 0 1 0.0000000000000000e+00 5.1340636485099465e+00 7.6146819898822145e+00 1.3785727615907859e+01 0 -1 -1
48 0 1 0.0000000000000000e+00 1.5040509993820177e+01 1.5592425022635148e+01 1.6543367833566442e+01 0 0 -1
5 0 1 0.0000000000000000e+00 9.8946196654702163e+00 2.1416255024971527e+01 1.1517223709495934e+01 1 0 0
188 0 1 0.0000000000000000e+00 1.6781906907349061e+01 1.4821129834598176e+01 1.9251094119980593e+01 0 -2 -1
19 0 1 0.0000000000000000e+00 1.7343528317517078e+00 1.9468913055653669e+01 1.9937213731782371e+01 -1 -1 -1
43 0 1 0.0000000000000000e+00 9.0989621826707836e+00 2.0534945098629013e+01 1.5897044072771134e+01 0 -1 0
223 0 1 0.0000000000000000e+00 2.1774604388385782e+01 2.0701138409239402e+01 1.6896282296363172e+01 -1 0 0
80 0 1 0.0000000000000000e+00 8.0433749112201838e+00 2.8305120855094286e+00 2.1784691251814341e+01 1 0 -1
26 0 1 0.0000000000000000e+00 1.4870570249890550e+01 1.0236775067074879e+00 1.5732234143399625e+01 0 0 -1
130 0 1 0.0000000000000000e+00 1.1716836295863564e+01 1.5776756854500544e+01 1.8364311848680419e+01 0 -1 0
97 0 1 0.0000000000000000e+00 1.7034079933542927e+01 1.3822641607178593e+01 1.4906207307011078e+01 0 0 -1
220 0 1 0.0000000000000000e+00 1.6793784996025138e+01 1.0973464897883852e+01 1.9104976414204156e+01 0 0 0
107 0 1 0.0000000000000000e+00 2.0945417081699599e+01 1.7027275336034609e+01 1.5133005572878085e+01 -1 0 -1
123 0 1 0.0000000000000000e+00 1.1279941156310167e+01 9.2549174725443102e+00 1.4969362297574287e+01 0 0 0
182 0 1 0.0000000000000000e+00 5.8470539550558751e+00 1.6647548266822977e+01 1.4542427111566896e+01 1 0 1
36 0 1 0.0000000000000000e+00 8.3405890353351744e+00 1.6208186627151491e+01 1.6997899422687276e+01 1 -1 0
9 0 1 0.0000000000000000e+00 1.5272644467178205e+01 2.1507677968533358e+01 2.0285637769883987e+01 0 0 -1
67 0 1 0.0000000000000000e+00 3.9694489887041593e+00 2.7499618283367955e-01 1.7996345157082221e+01 0 0 0
244 0 1 0.0000000000000000e+00 5.1350869914254780e+00 1.4201747408166129e+01 2.1937738702125802e+01 0 0 0
85 0 1 0.0000000000000000e+00 1.0695667362981556e+01 1.3253528678870163e+01 2.0701093606932098e+01 0 0 -1
202 0 1 0.0000000000000000e+00 1.2035476951580678e+01 8.8198613483897415e+00 1.8364822583207619e+01 0 -1 0
207 0 1 0.0000000000000000e+00 1.9512020175692321e+01 3.3868160014780204e+00 1.5678498305322423e+01 -1 0 0
7 0 1 0.0000000000000000e+00 6.7101637584728904e+00 1.9513203475312601e+01 1.2282298624381440e+01 1 0 0
216 0 1 0.0000000000000000e+00 2.0749029499845996e+01 9.2374387030548046e+00 1.3938199291752595e+01 -1 0 0
142 0 1 0.0000000000000000e+00 1.1192595142942748e+01 6.2723823606045883e+00 1.4789938943242666e+01 0 1 1
226 0 1 0.0000000000000000e+00 1.5167108415950860e+01 1.9622881317884545e+01 1.5901732482550059e+01 0 0 0
44 0 1 0.0000000000000000e+00 8.2654430535221142e+00 3.6610288161991589e+00 9.5445478963154198e+00 -1 1 -1
12 0 1 0.0000000000000000e+00 1.7313695393085172e+01 1.7837597063106735e+01 1.3876723456423610e+01 0 0 0
14 0 1 0.0000000000000000e+00 3.9391408582989840e-01 1.3945047390331847e+01 1.2440611438559909e+01 1 0 -1
23 0 1 0.0000000000000000e+00 1.3532889217694605e+01 3.8489043990983141e+00 1.4456354517561193e+01 0 0 0
181 0 1 0.0000000000000000e+00 1.7962684809937617e+01 1.0264410469583487e+01 1.5908526341809550e+01 -1 0 0
175 0 1 0.0000000000000000e+00 1.3829633677937906e+01 1.2709489754581918e+01 1.6410195677750661e+01 0 0 0
225 0 1 0.0000000000000000e+00 8.6399257895318904e+00 4.0127389056003491e+00 1.6815188393447364e+01 0 0 0
103 0 1 0.0000000000000000e+00 7.6338656154186779e+00 1.2958993874601841e+01 1.4292392205674526e+01 0 0 0
41 0 1 0.0000000000000000e+00 1.7695369996318195e+01 7.7119398376936674e+00 1.8729206677448001e+01 -1 0 -1
121 0 1 0.0000000000000000e+00 1.0818120973091041e+01 5.5838704834893118e+00 1.9326966692430261e+01 0 0 0
231 0 1 0.0000000000000000e+00 7.9072499978060637e+00 1.3547641902157231e+01 1.9398656763449416e+01 -1 -1 0
124 0 1 0.0000000000000000e+00 2.1940895254831048e+01 1.7185536987982346e+01 1.0681421071945248e+01 -1 0 1
232 0 1 0.0000000000000000e+00 9.9800376498446965e+00 1.2903995674564882e+01 1.6779778618934461e+01 0 0 1
88 0 1 0.0000000000000000e+00 2.0683567696171226e+00 1.9798758602818825e+01 1.0148014178166568e+01 1 0 0
143 0 1 0.0000000000000000e+00 4.4576169686619096e+00 1.3588125270160980e+01 1.3835146812883231e+01 1 0 -1
6 0 1 0.0000000000000000e+00 4.7216017641519290e+00 1.9958869273696635e+01 1.5077171322548331e+01 1 0 -1
42 0 1 0.0000000000000000e+00 1.6334660434877463e+01 3.8345853813598039e+00 9.6171411890797085e+00 1 0 -1
120 0 1 0.0000000000000000e+00 1.8922609121843902e+01 1.5492212739456834e+01 1.1146398699441226e+01 0 -1 0
184 0 1 0.0000000000000000e+00 1.1072928936044210e+01 1.4845036445169750e+01 1.4157755823734435e+01 0 0 1
59 0 1 0.0000000000000000e+00 1.7772201005514892e+00 1.7453720264090244e+01 1.7649372789534954e+01 0 -1 -1
242 0 1 0.0000000000000000e+00 7.4300504631193727e+00 7.1988748075927207e+00 1.9698206106820717e+01 0 0 0
180 0 1 0.0000000000000000e+00 1.2335177843946498e+01 2.1160219594649483e+01 1.3950662432500588e+01 1 -1 1
248 0 1 0.0000000000000000e+00 1.1582978759006781e+00 6.9075189514256508e+00 1.0655311479465070e+01 1 0 0
70 0 1 0.0000000000000000e+00 2.0867447814653648e+01 1.2573043404325976e+01 1.5521057164408294e+01 -1 1 -1
37 0 1 0.0000000000000000e+00 1.2189978706124551e+00 9.6295015257981564e+00 1.6531162824193011e+01 1 0 0
111 0 1 0.0000000000000000e+00 1.6625951411378523e+01 5.1096868380532889e+00 1.6913243685236285e+01 -1 0 0
200 0 1 0.0000000000000000e+00 2.5501969986131465e+00 1.6734365848708794e+01 1.3649455801675852e+01 0 -1 0
187 0 1 0.0000000000000000e+00 2.0388598016897603e+01 5.4610231833467644e+00 1.3178926936065825e+01 -1 0 0
204 0 1 0.0000000000000000e+00 2.0551263329329853e+01 6.2205769554383421e+00 1.6867666491993692e+01 -1 1 0
53 0 1 0.0000000000000000e+00 2.0686661387722513e+01 1.0076837006086768e+01 1.9352279305701241e+01 0 1 0
228 0 1 0.0000000000000000e+00 1.4031402720491719e+00 3.4765762085629572e+00 1.1453831029520895e+01 1 1 1
198 0 1 0.0000000000000000e+00 9.2223127727432583e+00 1.0295503585036732e+01 2.0223534503894737e+01 0 0 0
72 0 1 0.0000000000000000e+00 1.5503947044069257e+00 1.9972438745957872e+00 1.5561106507529580e+01 1 1 0
17 0 1 0.0000000000000000e+00 1.2141858897823745e+01 1.7672016115217669e+01 1.6012735570114494e+01 0 0 0
211 0 1 0.0000000000000000e+00 2.1840260422183682e+00 1.3887705331158557e+01 1.6130310041138589e+01 0 1 0
238 0 1 0.0000000000000000e+00 1.1437724523981705e+01 2.0765263583372606e+00 1.6701698072175709e+01 0 1 0
210 0 1 0.0000000000000000e+00 2.1134918852013630e+01 1.7930409068153686e+01 1.9422654792181191e+01 0 0 0
150 0 1 0.0000000000000000e+00 2.6222800009190315e+00 1.9768584372250356e+01 1.4484119194389087e+00 1 -1 1
39 0 1 0.0000000000000000e+00 2.2371323010880388e+00 5.8827698001878161e+00 1.7935275954257680e+01 1 1 0
158 0 1 0.0000000000000000e+00 3.4587663734543730e+00 1.6819468677039605e+01 2.0787842212707901e+01 0 -1 1
74 0 1 0.0000000000000000e+00 1.3782761016948538e+01 1.5307480889423520e+01 2.0926392328536316e+01 0 0 0
233 0 1 0.0000000000000000e+00 1.1235637600480308e+01 1.1464628175382993e+01 1.2109473090977046e+01 -1 2 1
15 0 1 0.0000000000000000e+00 2.0693677783197153e+01 2.2177073439160244e+00 1.3014238379772401e+01 0 1 0
127 0 1 0.0000000000000000e+00 8.3579174618495458e+00 7.9637259095901589e+00 1.6118623675588349e+01 1 0 0
189 0 1 0.0000000000000000e+00 1.8056288339219719e+01 1.8168796307502014e+01 1.8130498940161868e+01 0 0 0
186 0 1 0.0000000000000000e+00 1.3571696281563799e+01 1.1357709848261340e+01 1.9554271675857915e+01 -1 0 0
110 0 1 0.0000000000000000e+00 6.0643562107474898e+00 3.5065628540625595e+00 1.9133192895260617e+01 1 0 -1
160 0 1 0.0000000000000000e+00 1.4519096517059667e+01 8.5386022309963288e+00 1.5922171996094329e+01 0 1 0
208 0 1 0.0000000000000000e+00 4.6842931920001600e+00 7.9296812608938492e+00 1.7267757453694234e+01 -1 0 0
118 0 1 0.0000000000000000e+00 5.1729715954653575e+00 1.0945323203484117e+01 2.0210138679009777e+01 0 0 0
222 0 1 0.0000000000000000e+00 2.0303685202934613e+01 1.3038081581314167e+01 1.8725249701556255e+01 -1 0 -1
250 0 1 0.0000000000000000e+00 9.3579265831887195e+00 1.9354884864543898e+01 1.9369632759802577e+01 -1 -1 1
209 0 1 0.0000000000000000e+00 8.5658138741956815e+00 9.0595507007043388e+00 1.2510786493581216e+01 0 0 0
162 0 1 0.0000000000000000e+00 7.5514641528640301e+00 5.4065693310863070e+00 1.3103390838389126e+01 -1 0 -1
32 0 1 0.0000000000000000e+00 2.2474523460359555e+00 1.0275364833465597e+01 1.3304519296884662e+01 0 -1 -1
8 0 1 0.0000000000000000e+00 1.9750322605808108e+01 1.3831594753226636e+01 4.7799144128931442e-01 0 0 0
87 0 1 0.0000000000000000e+00 4.6326512252084591e+00 1.4360224362493033e+01 1.8201787467083786e+01 0 0 -1
52 0 1 0.0000000000000000e+00 1.4280389356349565e+01 1.8313064382795241e+00 1.1864025948480197e+01 0 0 0
113 0 1 0.0000000000000000e+00 1.8944553828106578e+01 2.1160841753631367e+01 1.9685616138115076e+01 0 0 -1
10 0 1 0.0000000000000000e+00 6.9964444528544121e+00 2.1730739742779228e+01 1.8443101569803297e+01 -1 0 0
132 0 1 0.0000000000000000e+00 1.3886121924349384e+01 9.3609743840459085e+00 2.4855008675734563e-01 1 0 0
139 0 1 0.0000000000000000e+00 1.9531812388234680e+01 1.9283489132651388e+00 1.8477549320257438e-02 0 0 1
174 0 1 0.0000000000000000e+00 1.8562583893814171e+01 2.1856470594654311e+01 1.2110733419285728e+01 1 0 0
197 0 1 0.0000000000000000e+00 1.5810354077966890e+01 2.7352870896288413e+00 6.4538225105873226e-01 0 1 0
82 0 1 0.0000000000000000e+00 1.1596586654782813e+01 2.4487871417823799e+00 9.9403945849745714e+00 0 0 1
94 0 1 0.0000000000000000e+00 1.4977199887268879e+01 1.8213573164647268e+01 1.8806024985423697e+01 1 0 -1
100 0 1 0.0000000000000000e+00 1.4792399436317840e+01 6.7443411639708160e+00 1.2308717370884558e+01 -1 0 0
114 0 1 0.0000000000000000e+00 1.5548156684975449e+01 1.0513859883288522e+01 1.3320669540547536e+01 0 0 0

Velocities

195 -6.8406265642892405e+00 8.8144247453025604e-01 2.0420371882910628e+00
112 -4.8133641249218231e+00 2.0337140243177290e+00 -1.8160402587738740e+00
146 -1.0768295573377328e+01 -4.2789309194827370e+00 -4.7213006332500598e+00
45 -2.2251591271009410e+00 9.4332502583953222e+00 6.4472671613666210e-01
40 7.5605353940422253e+00 -1.8411302030546008e+00 -3.6196214190810094e+00
137 -5.6602887556360262e+00 -6.1933210134149528e+00 -1.9277734360188070e+00
77 2.3624020581342378e+00 -8.3782065810650455e+00 -5.1490662844692494e+00
212 -5.2139698688096887e+00 -3.2413785499552366e+00 -3.3742618444505479e-01
247 3.8229453235934416e+00 -4.2607764744935134e-01 4.7562163358359505e-01
138 3.4609835140705445e+00 1.8787115024718526e-02 -5.3733424822031912e+00
31 -7.7486028233802999e+00 2.1585521939162464e+00 6.9902152074553181e-01
177 -1.6555615831001771e-01 -3.4700343071840218e+00 -9.2930210520748002e-01
81 -4.7202415718001935e+00 5.8496351719641258e-02 2.9987292131700913e+00
4 1.1463908447190953e+01 -1.5849847159914996e+00 -6.4201646208108896e+00
201 -2.4075558876507492e+00 -2.0775874812590813e+00 5.9235082190865525e+00
163 6.4476829806800664e+00 -5.2162650621994777e-01 -7.0411368134217389e-01
117 1.0096520698914738e-01 -4.9452914086529165e-01 -9.1556744692276870e-01
34 -2.0553415302373104e+00 -4.6273184640965415e+00 6.8852959260659352e+00
18 -2.6664895377927982e+00 3.0904027601418163e+00 -4.7356080585438427e+00
165 1.5786935327745586e+00 2.4981322899684364e+00 6.8021091221394014e+00
245 3.4962895755704646e+00 4.5676372032841455e+00 4.3485198016800206e+00
243 1.9418484876205730e+00 -6.1283332181239052e+00 3.9508023115691597e+00
119 1.1534908659966943e+00 -1.7576746206233336e+00 -2.0940665583485969e+00
61 4.6226089926876064e+00 -1.6562518103663506e+00 5.7441097013254572e-01
148 -1.9361705261960635e-01 3.0720357439218562e+00 7.0622401644902046e+00
27 1.8952996561198923e+00 4.2011469914083532e+00 1.5833029550599667e+00
50 -7.9653622094491334e+00 -6.9318254496357889e-01 -2.4203898303378726e-01
192 -2.0400158661486920e-01 -1.5938223630502363e-01 9.7898378968636024e-01
21 -1.1142456282337196e+01 -5.4483272006449743e+00 -1.6645651161431063e+00
224 4.4026655811919939e+00 4.2569705567917486e+00 1.6276427991260678e+00
55 -1.3092363749624219e+01 7.4483928843150249e+00 5.4957431914803223e+00
47 2.2092406402376161e+00 -1.7242410664137739e+00 2.7909716233411452e+00
105 3.7658977417322199e+00 -2.5143727496930444e+00 3.2919476178377556e+00
76 -4.9348261321954743e+00 -2.8887303430624023e-01 -1.9115094968175732e+00
145 4.5278572469838192e+00 -4.3208940147407615e+00 2.4170949705230340e+00
154 -3.0563812753434685e+00 -7.1113687708834981e+00 2.8724775944853702e+00
1 -3.9120929343446056e+00 -6.3794133199461935e+00 1.7227703161510124e-01
237 1.8449908740868079e-01 4.4562558537566188e+00 5.2931748128886835e-01
170 -3.7646642590470645e+00 5.1538361182112409e+00 -1.2379955222708663e+00
65 -3.9435705019271761e+00 -1.7236083321839237e+00 -6.5132172961005308e+00
3 1.0533703290861245e+00 -4.5705211696947350e-02 5.5822775595775131e-01