LAMMPS data file via write_data, version 11 Aug 2017, timestep = 5000

250 atoms
1 atom types

-5.6894151952812777e-02 2.2056894151953024e+01 xlo xhi
-5.6894151952812777e-02 2.2056894151953024e+01 ylo yhi
-5.6894151952812777e-02 2.2056894151953024e+01 zlo zhi
0.0000000000000000e+00 0.0000000000000000e+00 0.0000000000000000e+00 xy xz yz

Masses

1 22.9898

Atoms # full

195 0 1 0.0000000000000000e+00 2.0986051591351782e+01 1.4358342695006487e+01 2.1969444551771264e+00 1 1 1
112 0 1 0.0000000000000000e+00 1.9198630357916947e+01 1.8838316325549407e+01 1.0154554383792368e+01 0 0 0
146 0 1 0.0000000000000000e+00 1.2248534282289656e+00 2.0594669159899283e+01 2.4045791178643241e+00 1 1 1
45 0 1 0.0000000000000000e+00 4.2928669712808460e+00 1.1895609398618602e+01 5.6861765210761357e+00 0 0 0
40 0 1 0.0000000000000000e+00 2.0768556400773704e+01 1.7565292717530717e+01 4.8356255131791048e+00 -1 0 -1
137 0 1 0.0000000000000000e+00 3.2064075212383432e+00 1.8033128865404741e+01 9.0543405597765858e+00 0 -1 0
77 0 1 0.0000000000000000e+00 9.1467054575962923e+00 5.3941177428762739e+00 2.5145775214095196e+00 0 0 0
212 0 1 0.0000000000000000e+00 2.1450202506743572e+01 4.3809785910758645e+00 4.5615141566009934e+00 0 0 0
247 0 1 0.0000000000000000e+00 1.8564414765520503e+01 4.9293526149419238e+00 1.4720372951076915e-01 -1 0 1
138 0 1 0.0000000000000000e+00 4.9784771796099889e+00 1.1134984530496167e+01 1.1483210737180460e-01 1 0 1
31 0 1 0.0000000000000000e+00 1.1808201511573543e+01 3.8242969234410729e-01 1.3493532145237037e+00 0 0 1
177 0 1 0.0000000000000000e+00 1.0045564880861400e+01 2.6310232847756212e+00 3.6192645259880663e+00 0 0 1
81 0 1 0.0000000000000000e+00 1.6148002361745384e+01 2.0342234547449194e+00 8.9085100635713310e+00 0 1 0
4 0 1 0.0000000000000000e+00 1.8101668773094104e+01 1.1465354350483077e+01 1.0488399194239451e+01 0 0 1
201 0 1 0.0000000000000000e+00 2.0396211514566915e+01 1.0332883600200859e+01 5.6875541646074479e-01 0 1 1
163 0 1 0.0000000000000000e+00 4.9941433113192160e+00 9.3975495006406931e+00 3.4033565185677888e+00 0 -1 0
117 0 1 0.0000000000000000e+00 7.0963667416735579e+00 4.8702424298358000e+00 6.0867111070079805e+00 0 0 -1
34 0 1 0.0000000000000000e+00 8.6985091840434148e+00 1.8405920893987982e+01 2.6764971282007810e+00 0 -1 0
18 0 1 0.0000000000000000e+00 2.1196600217618538e+01 1.8256653810758650e+01 7.8202919448596098e-01 -1 0 0
165 0 1 0.0000000000000000e+00 1.3500676296673854e+01 1.4592215119153757e+01 4.9162030323087507e+00 0 0 0
245 0 1 0.0000000000000000e+00 1.5538760040415317e+01 2.0378645970830569e+01 1.0527368886663700e+01 -1 0 0
243 0 1 0.0000000000000000e+00 6.0744729400113417e+00 2.0239100349581186e+01 9.0532372289199614e+00 1 0 1
119 0 1 0.0000000000000000e+00 2.1517936347853592e+01 1.3180812038926113e+01 1.0311156319849109e+01 -1 -1 0
61 0 1 0.0000000000000000e+00 9.5821105354872174e+00 4.7626694048532778e+00 8.8972856741190647e+00 1 1 -1
148 0 1 0.0000000000000000e+00 1.8042919287011583e+00 6.6619801136575454e+00 3.1066223356949920e+00 1 0 0
27 0 1 0.0000000000000000e+00 3.9237678453230611e+00 4.8668925438530488e+00 9.8636776114952713e+00 0 0 0
50 0 1 0.0000000000000000e+00 1.4753812947600723e+01 1.5134990317435689e+01 1.4388262830217431e+00 0 -1 1
192 0 1 0.0000000000000000e+00 1.2920512366668349e+00 1.1608550711542531e+01 8.1147569961110104e+00 1 0 0
21 0 1 0.0000000000000000e+00 1.1035993942622735e+01 1.2378019502310149e+01 1.4148911053264708e+00 0 0 0
224 0 1 0.0000000000000000e+00 6.3436366227258689e-01 5.0835868700739377e+00 9.4690025112638612e+00 1 0 0
55 0 1 0.0000000000000000e+00 2.6622996829161907e+00 2.1007857147451141e+01 7.5269377880870980e+00 1 0 -1
47 0 1 0.0000000000000000e+00 4.3414398209394145e+00 8.0755823835953979e+00 6.1798756936552435e+00 1 0 0
105 0 1 0.0000000000000000e+00 4.6790189211163575e+00 1.7525665556803048e+01 5.8225219878414647e+00 1 0 0
76 0 1 0.0000000000000000e+00 1.7914355624417354e+01 1.7857803332986769e+01 6.6383050119827898e+00 0 -1 0
145 0 1 0.0000000000000000e+00 1.1837706459938820e+01 1.6898006567519075e+00 6.8835605437370466e+00 0 1 0
154 0 1 0.0000000000000000e+00 6.4848376834065959e+00 2.6662470589376110e+00 9.2945185940266342e+00 0 1 1
1 0 1 0.0000000000000000e+00 1.2533648235540648e+01 1.8555134322958288e+01 2.9611408732361992e+00 0 -1 0
237 0 1 0.0000000000000000e+00 1.1110617697748852e+01 5.6872264851705356e+00 5.9327078269010229e+00 1 1 1
170 0 1 0.0000000000000000e+00 1.1096509260504478e+01 2.0649743075538638e+01 5.2510203116459291e+00 0 0 1
65 0 1 0.0000000000000000e+00 1.4043028308533442e+01 5.6238030304353048e-01 3.3768118502780813e+00 -1 1 0
3 0 1 0.0000000000000000e+00 1.0050335438024323e+01 1.4777438829943561e+01 3.7021471218466924e+00 0 0 -1
241 0 1 0.0000000000000000e+00 8.1377644556609745e+00 8.1268891645478618e+00 5.3284643047504598e+00 0 0 0
205 0 1 0.0000000000000000e+00 1.6072095311804495e+00 9.6717375417743252e+00 9.6560922934311311e-01 1 0 1
140 0 1 0.0000000000000000e+00 1.7929358680352962e+01 2.1582657135337264e+01 8.1526599651422629e+00 0 -1 0
22 0 1 0.0000000000000000e+00 1.6260072309316385e+01 2.0071472588800837e+01 1.1410280015846173e+00 0 0 1
2 0 1 0.0000000000000000e+00 1.4979907208531174e+00 1.6877512802293630e+01 3.3735943950609206e+00 1 -1 0
108 0 1 0.0000000000000000e+00 1.3559371572578646e+01 3.3035582412676936e+00 1.0304194596127272e+00 0 1 0
68 0 1 0.0000000000000000e+00 2.7842437651571754e+00 1.9366958274237358e+00 7.1389773100118443e+00 0 0 0
213 0 1 0.0000000000000000e+00 2.1371453679330706e+01 7.8686983958037597e+00 6.6346464347449823e+00 0 0 0
91 0 1 0.0000000000000000e+00 8.4979967540019210e+00 -5.5414027411743803e-02 2.2150264811378908e+00 0 0 0
191 0 1 0.0000000000000000e+00 1.7960010717098385e+00 5.3262289841142163e+00 6.5268982373494895e+00 0 0 0
106 0 1 0.0000000000000000e+00 1.8463972971112241e+01 2.2472568332783025e+00 2.4516150926398121e+00 0 0 0
46 0 1 0.0000000000000000e+00 5.8451537879152022e+00 2.1763793318852995e+00 2.0652567276273937e+00 -1 0 0
60 0 1 0.0000000000000000e+00 2.4922145890374239e+00 8.0438235225744670e+00 8.9479250588091030e+00 0 0 -1
227 0 1 0.0000000000000000e+00 1.2957539457983247e+01 7.1418278309564451e+00 9.6007436047308436e-01 -1 0 0
11 0 1 0.0000000000000000e+00 1.3897518391446678e+01 1.1621893546136414e+01 3.3402395627614285e+00 0 0 -1
129 0 1 0.0000000000000000e+00 1.7791928972521731e+01 5.8520901640988283e+00 3.4083212717344336e+00 0 0 1
83 0 1 0.0000000000000000e+00 1.8950368333558217e+01 5.7283986945865646e+00 6.3967232772858011e+00 0 0 0
101 0 1 0.0000000000000000e+00 2.1503313240577334e+01 1.4339556325573739e+01 5.9912775177744342e+00 0 0 0
235 0 1 0.0000000000000000e+00 2.0558260761221476e+01 1.6011143817356682e+01 8.9183553403172411e+00 -1 0 1
115 0 1 0.0000000000000000e+00 1.7884102770346239e+01 1.7294610034793479e+01 2.2611164011557059e+00 1 0 -1
168 0 1 0.0000000000000000e+00 1.4659592898646158e+01 2.1250737345664916e+01 6.4941126592058094e+00 0 -1 1
199 0 1 0.0000000000000000e+00 5.1326449412553519e+00 1.8203610265859147e+01 2.3758756199990865e+00 -1 -1 1
230 0 1 0.0000000000000000e+00 1.7323586049530697e+00 9.6515881678701838e+00 5.1186684345843929e+00 0 -1 0
71 0 1 0.0000000000000000e+00 9.3112798759005955e+00 9.1556646811003208e+00 8.4165234447595640e+00 0 0 0
63 0 1 0.0000000000000000e+00 1.0218597260922648e+01 1.5669486269113252e+01 1.0603764987215571e+01 0 0 0
152 0 1 0.0000000000000000e+00 2.0382966184563372e+01 1.0395982181857853e+01 3.9858043274113273e+00 -1 0 0
151 0 1 0.0000000000000000e+00 2.1908622513340049e+01 1.4684338411439779e+00 2.0018699602832517e+00 -1 1 1
240 0 1 0.0000000000000000e+00 1.4552479618588329e+01 4.1461571398058492e+00 3.9919133307927499e+00 0 0 0
193 0 1 0.0000000000000000e+00 6.4614120347977417e+00 1.4613377613573157e+01 8.3201754946251949e+00 0 0 1
79 0 1 0.0000000000000000e+00 1.0157340760239238e+01 2.1840367423873971e+01 9.4450417977591385e+00 1 0 0
56 0 1 0.0000000000000000e+00 1.8566475759073924e+01 2.0879898901570193e+01 4.7706614085952985e+00 0 -1 1
147 0 1 0.0000000000000000e+00 5.7153299141731297e+00 2.0747584019848318e+01 3.9987182614727662e-01 0 0 1
190 0 1 0.0000000000000000e+00 1.2018758335038736e+01 1.7277094456128836e+01 6.4867697370375419e+00 0 -1 0
92 0 1 0.0000000000000000e+00 2.8094953324491119e+00 1.4662518890245346e+01 6.8854381459810519e+00 1 -1 0
29 0 1 0.0000000000000000e+00 1.0276555435302415e+01 1.3928641988900695e+01 7.3463570433204195e+00 0 0 0
194 0 1 0.0000000000000000e+00 4.7682837073654092e+00 5.1430442149189108e+00 3.5911634129036516e+00 1 0 1
20 0 1 0.0000000000000000e+00 1.3692710108438810e+01 4.3665952817641278e+00 9.0540539149910444e+00 0 1 0
93 0 1 0.0000000000000000e+00 1.5407654049088803e+01 1.8419987288804506e+01 4.2898849251961231e+00 -1 0 -1
99 0 1 0.0000000000000000e+00 1.2946568310706240e+01 7.9778228479985671e+00 8.8380014921531238e+00 0 0 1
167 0 1 0.0000000000000000e+00 1.1252715437839714e-01 1.8667387796613902e+01 7.3245893026999411e+00 0 0 0
136 0 1 0.0000000000000000e+00 7.5280268988015777e+00 1.6192301829275408e+01 1.3273550556861802e-01 0 1 1
128 0 1 0.0000000000000000e+00 2.1477864466142883e+01 -7.9074015551832966e-03 8.2844892599107283e+00 0 1 0
234 0 1 0.0000000000000000e+00 7.8042975648878841e+00 1.6165794569720767e+01 5.0144004472537596e+00 1 -1 0
98 0 1 0.0000000000000000e+00 1.8011914744693314e+01 1.3000380963371942e+01 1.6105070194917246e+00 0 0 0
218 0 1 0.0000000000000000e+00 7.4724014202211109e+00 1.2840905818414443e+01 1.4855028076473589e+00 0 0 1
149 0 1 0.0000000000000000e+00 1.2193181610940004e+01 1.0750334140711928e+01 7.2405070478071414e+00 1 -1 0
122 0 1 0.0000000000000000e+00 1.6145223561150942e+01 4.9591198723903611e+00 7.3645102069487827e+00 0 0 0
64 0 1 0.0000000000000000e+00 2.1520728441828010e+00 1.4946782268576396e+01 3.7328515720222211e-01 1 -1 0
13 0 1 0.0000000000000000e+00 1.5410016315947253e+01 1.0912525539457910e+01 7.5691523025645600e+00 0 1 0
141 0 1 0.0000000000000000e+00 4.4891397295968449e+00 2.1521037096384937e+01 4.2757295065659999e+00 0 -1 1
102 0 1 0.0000000000000000e+00 2.0888416150490352e-01 2.1632111963909246e+01 5.2219907073572553e+00 0 0 0
217 0 1 0.0000000000000000e+00 1.7502969668481306e+01 1.4212721989040976e+01 5.1514127858254417e+00 -1 0 1
246 0 1 0.0000000000000000e+00 1.9199967684750078e+01 3.5049543996043111e+00 9.5771995950916189e+00 0 1 0
153 0 1 0.0000000000000000e+00 1.4768193623727877e+01 1.7404048471670194e+01 8.7845694268954411e+00 0 0 1
96 0 1 0.0000000000000000e+00 1.7577998643602804e+01 8.2078677778318525e+00 8.3271031106615752e+00 -1 0 -1
57 0 1 0.0000000000000000e+00 4.8377639675573612e+00 1.5074558091444313e+01 3.6062853710150637e+00 1 0 1
16 0 1 0.0000000000000000e+00 7.6363743207897334e+00 1.1906269371846232e+01 6.1851557889133844e+00 1 -1 0
196 0 1 0.0000000000000000e+00 1.7967652094704498e+01 1.3860183233978999e+01 8.4740039338178406e+00 0 0 0
86 0 1 0.0000000000000000e+00 2.0131963673749258e+00 1.2531365202279645e+01 3.0947280669340653e+00 0 0 0
203 0 1 0.0000000000000000e+00 1.6331498233776344e+01 2.0318789347676685e+00 5.5819602833074340e+00 -1 0 1
157 0 1 0.0000000000000000e+00 8.9939912336064118e+00 1.8143240410750067e+01 8.2293090501078101e+00 -1 -1 1
178 0 1 0.0000000000000000e+00 1.1848207443582126e+01 1.8892214704296677e+01 1.0509660169555449e+01 -1 0 0
159 0 1 0.0000000000000000e+00 1.1230318965726271e+01 8.9399992768367831e+00 3.5291042279137743e+00 0 0 0
164 0 1 0.0000000000000000e+00 1.7243242683861553e+01 1.0061249695086403e+01 4.5430739993019458e+00 -1 0 1
125 0 1 0.0000000000000000e+00 1.3383829518197096e+01 1.3858346607664613e+01 9.4031516544264058e+00 0 0 0
229 0 1 0.0000000000000000e+00 1.1253096417219400e+01 1.6085598535946907e+01 6.5389219044488478e-01 0 0 1
58 0 1 0.0000000000000000e+00 2.0989629547326302e+01 8.6454005240044367e+00 9.7682461410194357e+00 0 0 0
30 0 1 0.0000000000000000e+00 1.9784562078956007e+01 2.2170886037721722e+00 6.5279743685533163e+00 1 1 0
73 0 1 0.0000000000000000e+00 7.8603447631699952e+00 1.0595158008121521e+00 6.4195377519184058e+00 1 1 0
104 0 1 0.0000000000000000e+00 3.3759114792501017e+00 1.2757790848221898e+01 1.0218706063645152e+01 0 0 -1
109 0 1 0.0000000000000000e+00 7.2798278897115667e+00 1.9810834375702598e+01 5.7748964802956726e+00 1 0 0
144 0 1 0.0000000000000000e+00 2.3177039750861712e+00 2.9654235374874749e+00 2.9929840224596687e+00 1 0 0
51 0 1 0.0000000000000000e+00 1.4167157896701600e+01 7.7688691983749489e+00 5.2881014435131188e+00 0 0 0
84 0 1 0.0000000000000000e+00 1.9872251893903318e+01 1.1807451506776099e+01 6.8765683510229350e+00 -1 1 0
214 0 1 0.0000000000000000e+00 8.1032487808114855e+00 8.9094367293814063e+00 1.9163300188598080e+00 0 0 1
215 0 1 0.0000000000000000e+00 3.3252418840554028e+00 5.6034732168176093e-01 1.0406542441185215e+01 0 1 1
173 0 1 0.0000000000000000e+00 6.6457274146315415e+00 6.6875966300993754e+00 8.9616817417737540e+00 0 0 1
172 0 1 0.0000000000000000e+00 1.6275955050151069e+01 9.0807899075104519e+00 1.1907298842110940e+00 0 0 0
236 0 1 0.0000000000000000e+00 6.2327033725548731e+00 1.0638801323956223e+01 9.1188974106814840e+00 0 0 -1
126 0 1 0.0000000000000000e+00 2.1349302410691770e+01 6.6406836023455664e+00 1.1490560808714443e+00 -1 0 0
156 0 1 0.0000000000000000e+00 2.9043247888216777e+00 4.3114007793366440e+00 -2.8823891833788765e-02 0 0 1
155 0 1 0.0000000000000000e+00 2.6143912224727841e+00 2.4060821561579027e-01 1.9006856165199471e-01 1 -1 0
35 0 1 0.0000000000000000e+00 4.0461961004157834e+00 7.4553356198119864e+00 -1.5183130654192127e-02 0 0 0
38 0 1 0.0000000000000000e+00 1.8635982340890834e+01 1.3582036344919459e+01 1.3214011386552244e+01 0 0 0
78 0 1 0.0000000000000000e+00 1.1124343577677301e+01 1.0657721570996047e+01 1.7816319662105023e+01 0 1 -1
90 0 1 0.0000000000000000e+00 2.3080549666009476e+00 1.9218905438530068e-02 1.4220852545474091e+01 1 1 0
134 0 1 0.0000000000000000e+00 8.7305438560315025e+00 1.1985337668213708e+01 1.1397004466802407e+01 0 0 0
176 0 1 0.0000000000000000e+00 1.5064839646917687e+01 5.4661222782859413e+00 1.9376653604829819e+01 -1 0 0
249 0 1 0.0000000000000000e+00 1.6631682298176187e+01 2.2535999807925586e+00 1.8699230631393142e+01 0 1 0
179 0 1 0.0000000000000000e+00 7.8394315266220778e+00 1.9171756448736211e+01 1.2127180039960875e+01 0 0 0
221 0 1 0.0000000000000000e+00 1.3084087352836344e+00 1.2398482823694081e+01 2.0248343838279290e+01 1 0 -1
206 0 1 0.0000000000000000e+00 1.5870888088744536e+01 4.2518380163140703e+00 1.5196773649287215e+01 -1 1 -1
54 0 1 0.0000000000000000e+00 2.1776094647818816e+01 2.1129035653696469e+01 2.1326111392695374e+01 -1 -1 0
171 0 1 0.0000000000000000e+00 1.4363071141820813e+01 1.7628725885045469e+01 2.1558669439594262e+01 0 0 -1
239 0 1 0.0000000000000000e+00 5.8037322579484369e+00 8.9033025558607690e+00 1.5453359160883119e+01 0 -1 0
131 0 1 0.0000000000000000e+00 6.3483474862615514e+00 1.5955962865859226e+01 1.1250640847822664e+01 -1 0 1
62 0 1 0.0000000000000000e+00 1.4605615609393749e+00 1.4699249077219463e+00 1.8735392467395151e+01 0 0 -1
75 0 1 0.0000000000000000e+00 3.4045460256292062e+00 6.5609082017229792e+00 1.5288791196788967e+01 1 0 -2
135 0 1 0.0000000000000000e+00 6.4238208298183908e-01 6.9024656201592887e+00 1.2609930072746979e+01 1 0 -1
161 0 1 0.0000000000000000e+00 1.6748962720539566e+01 1.6876105281480775e+01 1.1944031348334203e+01 0 0 1
116 0 1 0.0000000000000000e+00 1.4379690457126225e+01 1.4165486212106163e+01 1.3171840858435237e+01 0 0 0
219 0 1 0.0000000000000000e+00 1.1429267073539341e+01 3.5253669827390405e-01 1.7704545526380436e+01 0 1 0
33 0 1 0.0000000000000000e+00 7.6446584384897065e+00 1.8137144709383804e+01 1.8376325401365591e+01 0 1 0
89 0 1 0.0000000000000000e+00 1.6907820416508429e+01 3.4439571092373522e-01 1.5912765191366919e+01 -1 0 0
69 0 1 0.0000000000000000e+00 1.2062527681556789e+01 1.6765966223575894e+01 1.3530018526511764e+01 0 0 0
169 0 1 0.0000000000000000e+00 1.3143977199263645e+01 1.6051756001039374e+00 2.0123052476844151e+01 0 2 0
185 0 1 0.0000000000000000e+00 1.8180363289172924e+01 1.9744320428567278e+01 1.7190708200920788e+01 0 -1 -1
133 0 1 0.0000000000000000e+00 4.8256170310662705e-01 7.6412714064765304e+00 2.0404249300784684e+01 0 -1 -1
95 0 1 0.0000000000000000e+00 1.8036542339557165e+01 2.0367513076706558e+01 1.3516006125019207e+01 0 -1 0
66 0 1 0.0000000000000000e+00 2.0088420589933314e+01 1.7824951844694807e+00 1.7712714867190158e+01 0 0 0
183 0 1 0.0000000000000000e+00 2.8886293441537076e+00 3.4944794718132179e+00 1.2721872871973174e+01 1 0 0
24 0 1 0.0000000000000000e+00 9.4252258793218164e+00 2.5253398630435235e+00 1.1638589288399432e+01 0 1 0
28 0 1 0.0000000000000000e+00 1.1106953796268407e+01 9.5313742927972402e+00 1.2270834327765323e+01 0 0 0
166 0 1 0.0000000000000000e+00 2.1522240912744209e+01 3.1745844805396235e+00 2.1444179498173327e+01 -1 1 0
25 0 1 0.0000000000000000e+00 1.1934938923115135e+01 5.3866486405774303e+00 2.0396181831114838e+01 1 0 -1
49 0 1 0.0000000000000000e+00 4.4487294549499374e+00 8.0431079437194288e+00 1.2411907709922222e+01 0 -1 -1
48 0 1 0.0000000000000000e+00 1.3954105263092526e+01 1.9364419766364882e+01 1.8305189574379753e+01 0 0 -1
5 0 1 0.0000000000000000e+00 6.2287485879227722e+00 5.1458254853099294e-01 1.2643644158213521e+01 1 1 0
188 0 1 0.0000000000000000e+00 1.6889411560744904e+01 1.7209975709867088e+01 1.8879462050193432e+01 0 -2 -1
19 0 1 0.0000000000000000e+00 4.1282499014336258e+00 2.0899562722725840e+01 1.8467919952484067e+01 -1 -1 -1
43 0 1 0.0000000000000000e+00 8.2461435752246821e+00 2.1997624945689346e+01 1.7509192971618212e+01 0 -1 0
223 0 1 0.0000000000000000e+00 4.2980098301741071e-02 1.9835455263628731e+01 1.7922753998944700e+01 0 0 0
80 0 1 0.0000000000000000e+00 8.7404638031041841e+00 3.1096872473291195e+00 2.1810120113583444e+01 1 0 -1
26 0 1 0.0000000000000000e+00 1.2871269700321788e+01 1.7893085725194731e+00 1.4805216133295646e+01 0 0 -1
130 0 1 0.0000000000000000e+00 1.1263956731947401e+01 1.6690158340177945e+01 1.9221742299362376e+01 0 -1 0
97 0 1 0.0000000000000000e+00 1.6903291210398372e+01 1.4049511710205076e+01 1.6811789788506495e+01 0 0 -1
220 0 1 0.0000000000000000e+00 1.8076436311260345e+01 1.1526614624383337e+01 2.0435739007344075e+01 0 0 0
107 0 1 0.0000000000000000e+00 2.1687613537784600e-01 1.6683800846077006e+01 1.5965105486822667e+01 0 0 -1
123 0 1 0.0000000000000000e+00 1.3626028581043748e+01 1.0068413108836802e+01 1.5121815301370441e+01 0 0 0
182 0 1 0.0000000000000000e+00 3.9954082207460599e+00 1.5433133033446721e+01 1.3700481541556682e+01 1 0 1
36 0 1 0.0000000000000000e+00 7.6201028255682903e+00 1.6293770464238698e+01 1.4467459277466261e+01 1 -1 0
9 0 1 0.0000000000000000e+00 1.4051543791449864e+01 2.1048595049680145e+01 2.0832936574876257e+01 0 0 -1
67 0 1 0.0000000000000000e+00 4.3336767395785447e+00 1.7756100848379222e+00 1.6629369740926215e+01 0 0 0
244 0 1 0.0000000000000000e+00 4.2092322165977585e+00 1.3778484394017944e+01 1.9031211398343586e+01 0 0 0
85 0 1 0.0000000000000000e+00 1.2105736991119215e+01 1.3934464806996550e+01 2.0529646737915904e+01 0 0 -1
202 0 1 0.0000000000000000e+00 9.7713309277043106e+00 6.4106451497853199e+00 1.7877791113349488e+01 0 -1 0
207 0 1 0.0000000000000000e+00 1.9212927750698064e+01 3.6184162633773482e+00 1.4718101307637387e+01 -1 0 0
7 0 1 0.0000000000000000e+00 3.9002000912914538e+00 1.9661308488787384e+01 1.2205834729966510e+01 1 0 0
216 0 1 0.0000000000000000e+00 2.0573747087167618e+01 6.9827255130085248e+00 1.5979257160863602e+01 -1 0 0
142 0 1 0.0000000000000000e+00 9.2368103586500148e+00 7.2549619849857887e+00 1.4912653469323375e+01 0 1 1
226 0 1 0.0000000000000000e+00 1.3850062045930272e+01 2.0097159562999074e+01 1.3833556135393334e+01 0 0 0
44 0 1 0.0000000000000000e+00 1.0344748688102424e+01 6.2296240562933871e+00 1.1463399132635267e+01 -1 1 -1
12 0 1 0.0000000000000000e+00 1.5277356379627600e+01 1.7316281393419757e+01 1.5515086711171005e+01 0 0 0
14 0 1 0.0000000000000000e+00 -3.9518948739002670e-02 1.2690773215083807e+01 1.4132355885905596e+01 1 0 -1
23 0 1 0.0000000000000000e+00 1.3192866847917253e+01 4.0867544722392326e+00 1.2424796262103561e+01 0 0 0
181 0 1 0.0000000000000000e+00 1.6595700862339520e+01 7.5139973238959259e+00 1.6633568677694491e+01 -1 0 0
175 0 1 0.0000000000000000e+00 1.6585541462830939e+01 1.1011401343309185e+01 1.4109720369249017e+01 0 0 0
225 0 1 0.0000000000000000e+00 6.9148811359642330e+00 4.9564911604146431e+00 1.6202321916103266e+01 0 0 0
103 0 1 0.0000000000000000e+00 8.7959951564710863e+00 1.0725580970561253e+01 1.5272313723191361e+01 0 0 0
41 0 1 0.0000000000000000e+00 1.7786331770782411e+01 8.3082282784971966e+00 2.0133660398895749e+01 -1 0 -1
121 0 1 0.0000000000000000e+00 9.7670822802373394e+00 3.1207983008974072e+00 1.8543165412586461e+01 0 0 0
231 0 1 0.0000000000000000e+00 8.3937266688171839e+00 1.4009236318764657e+01 1.9273118102189429e+01 -1 -1 0
124 0 1 0.0000000000000000e+00 1.3804399744836018e+00 1.5725749387860178e+01 1.1104214493684784e+01 0 0 1
232 0 1 0.0000000000000000e+00 1.3113669288193034e+01 1.3566316608804701e+01 1.7162280707674874e+01 0 0 1
88 0 1 0.0000000000000000e+00 2.1820932340977819e+01 2.0214881919700701e+01 1.2639600928587557e+01 0 0 0
143 0 1 0.0000000000000000e+00 5.6350743025275767e+00 1.2129484247910003e+01 1.3052051546447725e+01 1 0 -1
6 0 1 0.0000000000000000e+00 6.1758910273645879e+00 2.0452420198040159e+01 1.4960940100142508e+01 1 0 -1
42 0 1 0.0000000000000000e+00 1.6698019354995566e+01 4.3547335282404500e+00 1.2018108399206506e+01 1 0 -1
120 0 1 0.0000000000000000e+00 2.0755253933260086e+01 1.6326835979776348e+01 1.2787243907306143e+01 0 -1 0
184 0 1 0.0000000000000000e+00 9.7581981538884417e+00 1.4581377968266716e+01 1.6211403411229966e+01 0 0 1
59 0 1 0.0000000000000000e+00 3.7406195192845244e+00 1.7132061250174793e+01 1.7173077435128029e+01 0 -1 -1
242 0 1 0.0000000000000000e+00 7.6162831310275889e+00 6.8837747303649746e+00 2.1169373965444024e+01 0 0 0
180 0 1 0.0000000000000000e+00 1.0199842011939758e+01 2.1308041058004619e+01 1.3160932219262619e+01 1 -1 1
248 0 1 0.0000000000000000e+00 2.0597496037846454e+01 9.4873759695765880e+00 1.3213348822660745e+01 0 0 0
70 0 1 0.0000000000000000e+00 1.9224169963732201e+01 1.0850281686796013e+01 1.7498932096814556e+01 -1 1 -1
37 0 1 0.0000000000000000e+00 1.9104198071323255e+00 1.0039911942507700e+01 1.4764790763788781e+01 1 0 0
111 0 1 0.0000000000000000e+00 1.2496655409304781e+01 4.7898529654069950e+00 1.6507543432549348e+01 -1 0 0
200 0 1 0.0000000000000000e+00 1.9845772316678429e+00 1.8703371195592688e+01 1.4796009493547057e+01 0 -1 0
187 0 1 0.0000000000000000e+00 1.8630484849478719e+01 6.9414915091894098e+00 1.2580213868474599e+01 -1 0 0
204 0 1 0.0000000000000000e+00 1.9029835335229535e+01 4.7522785099490603e+00 1.8807531161810616e+01 -1 1 0
53 0 1 0.0000000000000000e+00 4.6005105039944372e-01 1.0038255193080952e+01 1.7879295960002082e+01 1 1 0
228 0 1 0.0000000000000000e+00 2.5216186373534361e-01 1.8332748492819653e+00 1.2108774722146972e+01 1 1 1
198 0 1 0.0000000000000000e+00 1.0547513840468442e+01 9.2085700929944796e+00 2.1694361261515482e+01 0 0 0
72 0 1 0.0000000000000000e+00 7.4785578761923777e-01 3.0429712483225968e+00 1.5436835910207835e+01 1 1 0
17 0 1 0.0000000000000000e+00 1.0573400950694481e+01 1.9217495486386461e+01 1.6167639967488078e+01 0 0 0
211 0 1 0.0000000000000000e+00 2.1295562844313860e+00 1.3071492224478849e+01 1.6337856759423190e+01 0 1 0
238 0 1 0.0000000000000000e+00 9.5042329374630281e+00 2.4611304952242516e+00 1.4894082028055431e+01 0 1 0
210 0 1 0.0000000000000000e+00 2.0402889475402869e-01 1.5897261526170521e+01 1.9485184313635983e+01 1 0 0
150 0 1 0.0000000000000000e+00 1.6700729829144099e+00 1.8714469281478820e+01 2.1127212120400863e+01 1 -1 0
39 0 1 0.0000000000000000e+00 5.9793857931656857e-01 5.4394814042268731e+00 1.8120397342427701e+01 1 1 0
158 0 1 0.0000000000000000e+00 4.7083905924944398e+00 1.7540074681101700e+01 2.0689599403458132e+01 0 -1 1
74 0 1 0.0000000000000000e+00 1.5685882506808570e+01 1.4381240343399885e+01 1.9826322424718711e+01 0 0 0
233 0 1 0.0000000000000000e+00 1.1138741982785998e+01 1.3099111680483263e+01 1.3563727622982773e+01 -1 2 1
15 0 1 0.0000000000000000e+00 2.0658108326870298e+01 2.1512574548110827e+01 1.5467989912247701e+01 0 0 0
127 0 1 0.0000000000000000e+00 6.7667156454560766e+00 8.2323671300866490e+00 1.8568673146145962e+01 1 0 0
189 0 1 0.0000000000000000e+00 1.9222826107318724e+01 1.7054345749215145e+01 1.5822383098804623e+01 0 0 0
186 0 1 0.0000000000000000e+00 1.4227856826432291e+01 8.8752034529605321e+00 1.8386644968146911e+01 -1 0 0
110 0 1 0.0000000000000000e+00 4.1331650702739120e+00 5.6677459472235689e+00 1.8471003186549495e+01 1 0 -1
160 0 1 0.0000000000000000e+00 1.3857237624003254e+01 7.1371081069812563e+00 1.4388844066745257e+01 0 1 0
208 0 1 0.0000000000000000e+00 3.7936780548205316e+00 1.0275205521098680e+01 1.8973839371308493e+01 -1 0 0
118 0 1 0.0000000000000000e+00 8.1722865707124281e+00 1.1130919287108588e+01 1.9673128651239018e+01 0 0 0
222 0 1 0.0000000000000000e+00 2.0750421354504184e+01 1.3641465870975026e+01 1.7832854924635036e+01 -1 0 -1
250 0 1 0.0000000000000000e+00 8.6879626446724405e+00 2.0921026280646778e+01 2.0608449000773092e+01 -1 -1 1
209 0 1 0.0000000000000000e+00 7.5197063071084900e+00 8.1522376652620157e+00 1.1640415014250847e+01 0 0 0
162 0 1 0.0000000000000000e+00 6.4497242852704710e+00 4.3550269429830220e+00 1.2961421015066492e+01 -1 0 -1
32 0 1 0.0000000000000000e+00 1.5188356517586277e+00 1.0818863194097791e+01 1.1875943913097240e+01 0 -1 -1
8 0 1 0.0000000000000000e+00 1.8977833668978249e+01 1.4916219489752351e+01 2.1231565742213697e+01 0 0 -1
87 0 1 0.0000000000000000e+00 6.0939204773305011e+00 1.3326549628262118e+01 1.6358396301786570e+01 0 0 -1
52 0 1 0.0000000000000000e+00 1.6181425341428167e+01 8.5727137979358825e-01 1.2480607453695287e+01 0 0 0
113 0 1 0.0000000000000000e+00 1.9873099335225348e+01 1.8651900731385219e+01 1.9946606359746603e+01 0 0 -1
10 0 1 0.0000000000000000e+00 5.6912517516948578e+00 1.5741366323134343e+00 2.0809149533048931e+01 -1 1 0
132 0 1 0.0000000000000000e+00 1.4287383073784483e+01 1.1206325488411544e+01 2.0876953607513308e+01 1 0 -1
139 0 1 0.0000000000000000e+00 1.8594906787468595e+01 2.1319408672782259e+01 2.0940163510842659e+01 0 -1 0
174 0 1 0.0000000000000000e+00 1.9202621054615456e+01 1.1491304773353794e+00 1.1684075690427539e+01 1 1 0
197 0 1 0.0000000000000000e+00 1.6402697603476852e+01 1.9223654504304306e+00 2.2027629681293611e+01 0 1 -1
82 0 1 0.0000000000000000e+00 1.2860477346657131e+01 8.9184818670590371e-01 1.1069134845807614e+01 0 0 1
94 0 1 0.0000000000000000e+00 1.1468275974929806e+01 1.9571119329392481e+01 2.1701694148087391e+01 1 0 -1
100 0 1 0.0000000000000000e+00 1.5951995848313393e+01 7.8001868281236888e+00 1.1336890409277677e+01 -1 0 0
114 0 1 0.0000000000000000e+00 1.4561688661640192e+01 1.0658640460912297e+01 1.1149888985193394e+01 0 0 0

Velocities

195 4.0854080310029994e+00 -5.7171701002595405e+00 -2.5435104980033302e-01
112 -2.1734652541919810e+00 7.2433901767116671e-01 -1.5541815240545813e+00
146 3.3897926346902723e+00 2.0303356825200143e+00 -3.8479737759976445e+00
45 1.9295965549055185e+00 -4.7260702835591770e+00 -2.4950449720322720e+00
40 -7.4597968228404081e+00 -6.3866890088546602e-01 1.1025793479285040e+00
137 8.2058602839279837e-01 3.4693084417539741e+00 2.1931559707191344e+00
77 -2.6469606780691488e+00 -3.2414036642328825e+00 1.3845601185219017e-01
212 2.8738067671082641e+00 5.1607412670766240e-01 2.6149162560448249e+00
247 -8.9981305343467284e+00 2.2124705038575128e+00 9.4509221694753698e-01
138 1.8114493699386061e+00 1.8172926096991899e+00 -3.1857688112116409e+00
31 -1.7986173581432674e+00 6.2598624963712171e+00 3.0316555985689426e+00
177 7.7581311204200958e+00 -2.3698625114381695e-03 3.3546223744280748e+00
81 1.2148801180091766e+00 3.1350630907725510e+00 4.6302108232159989e-01
4 9.6568573885923514e-01 5.6687687427583553e+00 3.4009638305314405e+00
201 -7.8514591506402169e+00 -3.6519207784565171e+00 -4.0347332960966895e+00
163 5.9028061061261958e+00 1.7663913861249722e-01 5.6024542365200922e+00
117 1.6010871398832027e+00 5.1011220044015877e+00 -3.3414888585820499e+00
34 -8.2251733806159477e-01 -1.2314329999797002e+00 3.8120482614205162e+00
18 -3.3496648637444282e+00 -1.1320400852615309e+00 8.0265388779596147e+00
165 -5.0206271567943501e+00 -4.0570325438991253e+00 8.0703368384463854e+00
245 -8.5295838513680238e+00 -1.5264275299518779e+00 2.2438994423399281e+00
243 -2.0857824869022368e+00 3.3742121300194061e-01 3.9450097814449454e+00
119 1.0891189236756935e+01 -5.3049515532838643e-01 -2.3041354463834152e+00
61 -4.1257207990994678e+00 1.3081550619074503e-01 9.8443935523424375e-01
148 4.6780587145162822e-01 1.5896797566580487e-01 4.0625816846766423e+00
27 3.9485170977697384e+00 -3.9038557510291976e+00 1.0660072966252174e+00
50 -3.3587016797820191e+00 -2.9724689579650194e+00 1.3728364818194780e-01
192 -8.7371730830313616e+00 -1.0319423772024106e+00 9.5933537108311373e-01
21 -1.5814011082977784e+00 3.5768184529339042e-01 -2.1279100338351502e+00
224 -1.6177350812616222e+00 6.8263783422921751e+00 3.2646896383460433e-01
55 3.9487692749198851e+00 2.9812000639325825e-01 2.3417262137181383e+00
47 6.1941286546475007e+00 -5.5344538646768608e+00 3.1801410586775134e+00
105 2.3558230049950044e+00 9.7934720565319502e+00 5.0157237370587033e+00
76 -5.4842987256065285e+00 -4.6007248604427806e+00 -7.2970750466010570e-01
145 2.2721347016892293e+00 -3.7399936280964261e+00 1.6514370541427894e+00
154 -9.1652429285392856e+00 6.6553794518878961e-01 5.3867070963122323e+00
1 -1.4051697980955662e+00 -3.0511220476637213e+00 -2.1041373609386516e+00
237 2.2530161048122497e+00 5.5516514161502437e+00 5.7080599376108605e+00
170 9.5841582484292764e-01 -1.8492668666380383e+00 2.9834464234488092e+00
65 -5.1601835182869067e+00 3.3314588895675984e-01 -1.5698193964108818e+00
3 1.2024971717913122e-01 5.9771457025030261e-01 1.0549244815830109e+01